s 0.500000000 _0_ AGT  --- 0 tcp 40 [0 0 0 0] ------- [0:0 7:0 32 0] [0 0] 0 0
r 0.500000000 _0_ RTR  --- 0 tcp 40 [0 0 0 0] ------- [0:0 7:0 32 0] [0 0] 0 0
s 0.500000000 _3_ AGT  --- 1 tcp 40 [0 0 0 0] ------- [3:0 9:0 32 0] [0 0] 0 0
r 0.500000000 _3_ RTR  --- 1 tcp 40 [0 0 0 0] ------- [3:0 9:0 32 0] [0 0] 0 0
s 0.500000000 _0_ RTR  --- 0 AODV 48 [0 0 0 0] ------- [0:255 -1:255 30 0] [0x2 1 1 [7 0] [0 4]] (REQUEST)
s 0.500000000 _3_ RTR  --- 0 AODV 48 [0 0 0 0] ------- [3:255 -1:255 30 0] [0x2 1 1 [9 0] [3 4]] (REQUEST)
s 0.500375000 _3_ MAC  --- 0 AODV 106 [0 ffffffff 3 800] ------- [3:255 -1:255 30 0] [0x2 1 1 [9 0] [3 4]] (REQUEST)
r 0.501223774 _4_ MAC  --- 0 AODV 48 [0 ffffffff 3 800] ------- [3:255 -1:255 30 0] [0x2 1 1 [9 0] [3 4]] (REQUEST)
r 0.501223823 _6_ MAC  --- 0 AODV 48 [0 ffffffff 3 800] ------- [3:255 -1:255 30 0] [0x2 1 1 [9 0] [3 4]] (REQUEST)
r 0.501223826 _0_ MAC  --- 0 AODV 48 [0 ffffffff 3 800] ------- [3:255 -1:255 30 0] [0x2 1 1 [9 0] [3 4]] (REQUEST)
r 0.501248774 _4_ RTR  --- 0 AODV 48 [0 ffffffff 3 800] ------- [3:255 -1:255 30 0] [0x2 1 1 [9 0] [3 4]] (REQUEST)
r 0.501248823 _6_ RTR  --- 0 AODV 48 [0 ffffffff 3 800] ------- [3:255 -1:255 30 0] [0x2 1 1 [9 0] [3 4]] (REQUEST)
r 0.501248826 _0_ RTR  --- 0 AODV 48 [0 ffffffff 3 800] ------- [3:255 -1:255 30 0] [0x2 1 1 [9 0] [3 4]] (REQUEST)
s 0.501533826 _0_ MAC  --- 0 AODV 106 [0 ffffffff 0 800] ------- [0:255 -1:255 30 0] [0x2 1 1 [7 0] [0 4]] (REQUEST)
r 0.502382538 _1_ MAC  --- 0 AODV 48 [0 ffffffff 0 800] ------- [0:255 -1:255 30 0] [0x2 1 1 [7 0] [0 4]] (REQUEST)
r 0.502382586 _4_ MAC  --- 0 AODV 48 [0 ffffffff 0 800] ------- [0:255 -1:255 30 0] [0x2 1 1 [7 0] [0 4]] (REQUEST)
r 0.502382652 _3_ MAC  --- 0 AODV 48 [0 ffffffff 0 800] ------- [0:255 -1:255 30 0] [0x2 1 1 [7 0] [0 4]] (REQUEST)
r 0.502407538 _1_ RTR  --- 0 AODV 48 [0 ffffffff 0 800] ------- [0:255 -1:255 30 0] [0x2 1 1 [7 0] [0 4]] (REQUEST)
r 0.502407586 _4_ RTR  --- 0 AODV 48 [0 ffffffff 0 800] ------- [0:255 -1:255 30 0] [0x2 1 1 [7 0] [0 4]] (REQUEST)
r 0.502407652 _3_ RTR  --- 0 AODV 48 [0 ffffffff 0 800] ------- [0:255 -1:255 30 0] [0x2 1 1 [7 0] [0 4]] (REQUEST)
s 0.504378441 _6_ RTR  --- 0 AODV 48 [0 ffffffff 3 800] ------- [6:255 -1:255 29 0] [0x2 2 1 [9 0] [3 4]] (REQUEST)
s 0.504493441 _6_ MAC  --- 0 AODV 106 [0 ffffffff 6 800] ------- [6:255 -1:255 29 0] [0x2 2 1 [9 0] [3 4]] (REQUEST)
r 0.505342168 _8_ MAC  --- 0 AODV 48 [0 ffffffff 6 800] ------- [6:255 -1:255 29 0] [0x2 2 1 [9 0] [3 4]] (REQUEST)
r 0.505342194 _5_ MAC  --- 0 AODV 48 [0 ffffffff 6 800] ------- [6:255 -1:255 29 0] [0x2 2 1 [9 0] [3 4]] (REQUEST)
r 0.505342264 _3_ MAC  --- 0 AODV 48 [0 ffffffff 6 800] ------- [6:255 -1:255 29 0] [0x2 2 1 [9 0] [3 4]] (REQUEST)
r 0.505367168 _8_ RTR  --- 0 AODV 48 [0 ffffffff 6 800] ------- [6:255 -1:255 29 0] [0x2 2 1 [9 0] [3 4]] (REQUEST)
r 0.505367194 _5_ RTR  --- 0 AODV 48 [0 ffffffff 6 800] ------- [6:255 -1:255 29 0] [0x2 2 1 [9 0] [3 4]] (REQUEST)
r 0.505367264 _3_ RTR  --- 0 AODV 48 [0 ffffffff 6 800] ------- [6:255 -1:255 29 0] [0x2 2 1 [9 0] [3 4]] (REQUEST)
s 0.505498377 _4_ RTR  --- 0 AODV 48 [0 ffffffff 0 800] ------- [4:255 -1:255 29 0] [0x2 2 1 [7 0] [0 4]] (REQUEST)
s 0.505996341 _4_ MAC  --- 0 AODV 106 [0 ffffffff 4 800] ------- [4:255 -1:255 29 0] [0x2 2 1 [7 0] [0 4]] (REQUEST)
s 0.506505277 _5_ RTR  --- 0 AODV 48 [0 ffffffff 6 800] ------- [5:255 -1:255 28 0] [0x2 3 1 [9 0] [3 4]] (REQUEST)
r 0.506844910 _1_ MAC  --- 0 AODV 48 [0 ffffffff 4 800] ------- [4:255 -1:255 29 0] [0x2 2 1 [7 0] [0 4]] (REQUEST)
r 0.506845055 _2_ MAC  --- 0 AODV 48 [0 ffffffff 4 800] ------- [4:255 -1:255 29 0] [0x2 2 1 [7 0] [0 4]] (REQUEST)
r 0.506845101 _0_ MAC  --- 0 AODV 48 [0 ffffffff 4 800] ------- [4:255 -1:255 29 0] [0x2 2 1 [7 0] [0 4]] (REQUEST)
r 0.506845114 _3_ MAC  --- 0 AODV 48 [0 ffffffff 4 800] ------- [4:255 -1:255 29 0] [0x2 2 1 [7 0] [0 4]] (REQUEST)
r 0.506845124 _5_ MAC  --- 0 AODV 48 [0 ffffffff 4 800] ------- [4:255 -1:255 29 0] [0x2 2 1 [7 0] [0 4]] (REQUEST)
r 0.506869910 _1_ RTR  --- 0 AODV 48 [0 ffffffff 4 800] ------- [4:255 -1:255 29 0] [0x2 2 1 [7 0] [0 4]] (REQUEST)
r 0.506870055 _2_ RTR  --- 0 AODV 48 [0 ffffffff 4 800] ------- [4:255 -1:255 29 0] [0x2 2 1 [7 0] [0 4]] (REQUEST)
r 0.506870101 _0_ RTR  --- 0 AODV 48 [0 ffffffff 4 800] ------- [4:255 -1:255 29 0] [0x2 2 1 [7 0] [0 4]] (REQUEST)
r 0.506870114 _3_ RTR  --- 0 AODV 48 [0 ffffffff 4 800] ------- [4:255 -1:255 29 0] [0x2 2 1 [7 0] [0 4]] (REQUEST)
r 0.506870124 _5_ RTR  --- 0 AODV 48 [0 ffffffff 4 800] ------- [4:255 -1:255 29 0] [0x2 2 1 [7 0] [0 4]] (REQUEST)
s 0.507055124 _5_ MAC  --- 0 AODV 106 [0 ffffffff 5 800] ------- [5:255 -1:255 28 0] [0x2 3 1 [9 0] [3 4]] (REQUEST)
s 0.507811444 _2_ RTR  --- 0 AODV 48 [0 ffffffff 4 800] ------- [2:255 -1:255 28 0] [0x2 3 1 [7 0] [0 4]] (REQUEST)
r 0.507903564 _7_ MAC  --- 0 AODV 48 [0 ffffffff 5 800] ------- [5:255 -1:255 28 0] [0x2 3 1 [9 0] [3 4]] (REQUEST)
r 0.507903740 _2_ MAC  --- 0 AODV 48 [0 ffffffff 5 800] ------- [5:255 -1:255 28 0] [0x2 3 1 [9 0] [3 4]] (REQUEST)
r 0.507903780 _8_ MAC  --- 0 AODV 48 [0 ffffffff 5 800] ------- [5:255 -1:255 28 0] [0x2 3 1 [9 0] [3 4]] (REQUEST)
r 0.507903878 _6_ MAC  --- 0 AODV 48 [0 ffffffff 5 800] ------- [5:255 -1:255 28 0] [0x2 3 1 [9 0] [3 4]] (REQUEST)
r 0.507903908 _4_ MAC  --- 0 AODV 48 [0 ffffffff 5 800] ------- [5:255 -1:255 28 0] [0x2 3 1 [9 0] [3 4]] (REQUEST)
r 0.507928564 _7_ RTR  --- 0 AODV 48 [0 ffffffff 5 800] ------- [5:255 -1:255 28 0] [0x2 3 1 [9 0] [3 4]] (REQUEST)
r 0.507928740 _2_ RTR  --- 0 AODV 48 [0 ffffffff 5 800] ------- [5:255 -1:255 28 0] [0x2 3 1 [9 0] [3 4]] (REQUEST)
r 0.507928780 _8_ RTR  --- 0 AODV 48 [0 ffffffff 5 800] ------- [5:255 -1:255 28 0] [0x2 3 1 [9 0] [3 4]] (REQUEST)
r 0.507928878 _6_ RTR  --- 0 AODV 48 [0 ffffffff 5 800] ------- [5:255 -1:255 28 0] [0x2 3 1 [9 0] [3 4]] (REQUEST)
r 0.507928908 _4_ RTR  --- 0 AODV 48 [0 ffffffff 5 800] ------- [5:255 -1:255 28 0] [0x2 3 1 [9 0] [3 4]] (REQUEST)
s 0.508153740 _2_ MAC  --- 0 AODV 106 [0 ffffffff 2 800] ------- [2:255 -1:255 28 0] [0x2 3 1 [7 0] [0 4]] (REQUEST)
s 0.508796190 _1_ RTR  --- 0 AODV 48 [0 ffffffff 0 800] ------- [1:255 -1:255 29 0] [0x2 2 1 [7 0] [0 4]] (REQUEST)
r 0.509002356 _5_ MAC  --- 0 AODV 48 [0 ffffffff 2 800] ------- [2:255 -1:255 28 0] [0x2 3 1 [7 0] [0 4]] (REQUEST)
r 0.509002455 _4_ MAC  --- 0 AODV 48 [0 ffffffff 2 800] ------- [2:255 -1:255 28 0] [0x2 3 1 [7 0] [0 4]] (REQUEST)
r 0.509002479 _7_ MAC  --- 0 AODV 48 [0 ffffffff 2 800] ------- [2:255 -1:255 28 0] [0x2 3 1 [7 0] [0 4]] (REQUEST)
r 0.509002511 _1_ MAC  --- 0 AODV 48 [0 ffffffff 2 800] ------- [2:255 -1:255 28 0] [0x2 3 1 [7 0] [0 4]] (REQUEST)
r 0.509027356 _5_ RTR  --- 0 AODV 48 [0 ffffffff 2 800] ------- [2:255 -1:255 28 0] [0x2 3 1 [7 0] [0 4]] (REQUEST)
r 0.509027455 _4_ RTR  --- 0 AODV 48 [0 ffffffff 2 800] ------- [2:255 -1:255 28 0] [0x2 3 1 [7 0] [0 4]] (REQUEST)
r 0.509027479 _7_ RTR  --- 0 AODV 48 [0 ffffffff 2 800] ------- [2:255 -1:255 28 0] [0x2 3 1 [7 0] [0 4]] (REQUEST)
s 0.509027479 _7_ RTR  --- 0 AODV 44 [0 0 0 0] ------- [7:255 0:255 30 2] [0x4 1 [7 4] 10.000000] (REPLY)
r 0.509027511 _1_ RTR  --- 0 AODV 48 [0 ffffffff 2 800] ------- [2:255 -1:255 28 0] [0x2 3 1 [7 0] [0 4]] (REQUEST)
s 0.509240328 _4_ RTR  --- 0 AODV 48 [0 ffffffff 3 800] ------- [4:255 -1:255 29 0] [0x2 2 1 [9 0] [3 4]] (REQUEST)
s 0.509413587 _0_ RTR  --- 0 AODV 48 [0 ffffffff 3 800] ------- [0:255 -1:255 29 0] [0x2 2 1 [9 0] [3 4]] (REQUEST)
s 0.509492511 _1_ MAC  --- 0 AODV 106 [0 ffffffff 1 800] ------- [1:255 -1:255 29 0] [0x2 2 1 [7 0] [0 4]] (REQUEST)
r 0.510341080 _4_ MAC  --- 0 AODV 48 [0 ffffffff 1 800] ------- [1:255 -1:255 29 0] [0x2 2 1 [7 0] [0 4]] (REQUEST)
r 0.510341223 _0_ MAC  --- 0 AODV 48 [0 ffffffff 1 800] ------- [1:255 -1:255 29 0] [0x2 2 1 [7 0] [0 4]] (REQUEST)
r 0.510341281 _2_ MAC  --- 0 AODV 48 [0 ffffffff 1 800] ------- [1:255 -1:255 29 0] [0x2 2 1 [7 0] [0 4]] (REQUEST)
r 0.510366080 _4_ RTR  --- 0 AODV 48 [0 ffffffff 1 800] ------- [1:255 -1:255 29 0] [0x2 2 1 [7 0] [0 4]] (REQUEST)
r 0.510366223 _0_ RTR  --- 0 AODV 48 [0 ffffffff 1 800] ------- [1:255 -1:255 29 0] [0x2 2 1 [7 0] [0 4]] (REQUEST)
r 0.510366281 _2_ RTR  --- 0 AODV 48 [0 ffffffff 1 800] ------- [1:255 -1:255 29 0] [0x2 2 1 [7 0] [0 4]] (REQUEST)
s 0.510631080 _4_ MAC  --- 0 AODV 106 [0 ffffffff 4 800] ------- [4:255 -1:255 29 0] [0x2 2 1 [9 0] [3 4]] (REQUEST)
s 0.510770888 _3_ RTR  --- 0 AODV 48 [0 ffffffff 0 800] ------- [3:255 -1:255 29 0] [0x2 2 1 [7 0] [0 4]] (REQUEST)
r 0.511479650 _1_ MAC  --- 0 AODV 48 [0 ffffffff 4 800] ------- [4:255 -1:255 29 0] [0x2 2 1 [9 0] [3 4]] (REQUEST)
r 0.511479795 _2_ MAC  --- 0 AODV 48 [0 ffffffff 4 800] ------- [4:255 -1:255 29 0] [0x2 2 1 [9 0] [3 4]] (REQUEST)
r 0.511479840 _0_ MAC  --- 0 AODV 48 [0 ffffffff 4 800] ------- [4:255 -1:255 29 0] [0x2 2 1 [9 0] [3 4]] (REQUEST)
r 0.511479854 _3_ MAC  --- 0 AODV 48 [0 ffffffff 4 800] ------- [4:255 -1:255 29 0] [0x2 2 1 [9 0] [3 4]] (REQUEST)
r 0.511479864 _5_ MAC  --- 0 AODV 48 [0 ffffffff 4 800] ------- [4:255 -1:255 29 0] [0x2 2 1 [9 0] [3 4]] (REQUEST)
r 0.511504650 _1_ RTR  --- 0 AODV 48 [0 ffffffff 4 800] ------- [4:255 -1:255 29 0] [0x2 2 1 [9 0] [3 4]] (REQUEST)
r 0.511504795 _2_ RTR  --- 0 AODV 48 [0 ffffffff 4 800] ------- [4:255 -1:255 29 0] [0x2 2 1 [9 0] [3 4]] (REQUEST)
r 0.511504840 _0_ RTR  --- 0 AODV 48 [0 ffffffff 4 800] ------- [4:255 -1:255 29 0] [0x2 2 1 [9 0] [3 4]] (REQUEST)
r 0.511504854 _3_ RTR  --- 0 AODV 48 [0 ffffffff 4 800] ------- [4:255 -1:255 29 0] [0x2 2 1 [9 0] [3 4]] (REQUEST)
r 0.511504864 _5_ RTR  --- 0 AODV 48 [0 ffffffff 4 800] ------- [4:255 -1:255 29 0] [0x2 2 1 [9 0] [3 4]] (REQUEST)
s 0.511569854 _3_ MAC  --- 0 AODV 106 [0 ffffffff 3 800] ------- [3:255 -1:255 29 0] [0x2 2 1 [7 0] [0 4]] (REQUEST)
s 0.511767845 _8_ RTR  --- 0 AODV 48 [0 ffffffff 6 800] ------- [8:255 -1:255 28 0] [0x2 3 1 [9 0] [3 4]] (REQUEST)
s 0.512015421 _7_ RTR  --- 0 AODV 48 [0 ffffffff 5 800] ------- [7:255 -1:255 27 0] [0x2 4 1 [9 0] [3 4]] (REQUEST)
r 0.512418627 _4_ MAC  --- 0 AODV 48 [0 ffffffff 3 800] ------- [3:255 -1:255 29 0] [0x2 2 1 [7 0] [0 4]] (REQUEST)
r 0.512418677 _6_ MAC  --- 0 AODV 48 [0 ffffffff 3 800] ------- [3:255 -1:255 29 0] [0x2 2 1 [7 0] [0 4]] (REQUEST)
r 0.512418680 _0_ MAC  --- 0 AODV 48 [0 ffffffff 3 800] ------- [3:255 -1:255 29 0] [0x2 2 1 [7 0] [0 4]] (REQUEST)
r 0.512443627 _4_ RTR  --- 0 AODV 48 [0 ffffffff 3 800] ------- [3:255 -1:255 29 0] [0x2 2 1 [7 0] [0 4]] (REQUEST)
r 0.512443677 _6_ RTR  --- 0 AODV 48 [0 ffffffff 3 800] ------- [3:255 -1:255 29 0] [0x2 2 1 [7 0] [0 4]] (REQUEST)
r 0.512443680 _0_ RTR  --- 0 AODV 48 [0 ffffffff 3 800] ------- [3:255 -1:255 29 0] [0x2 2 1 [7 0] [0 4]] (REQUEST)
s 0.512728680 _0_ MAC  --- 0 AODV 106 [0 ffffffff 0 800] ------- [0:255 -1:255 29 0] [0x2 2 1 [9 0] [3 4]] (REQUEST)
s 0.512973384 _8_ MAC  --- 0 AODV 106 [0 ffffffff 8 800] ------- [8:255 -1:255 28 0] [0x2 3 1 [9 0] [3 4]] (REQUEST)
D 0.512974706 _4_ MAC  COL 0 AODV 106 [0 ffffffff 0 800] ------- [0:255 -1:255 29 0] [0x2 2 1 [9 0] [3 4]] (REQUEST)
s 0.513115228 _2_ RTR  --- 0 AODV 48 [0 ffffffff 5 800] ------- [2:255 -1:255 27 0] [0x2 4 1 [9 0] [3 4]] (REQUEST)
s 0.513535661 _6_ RTR  --- 0 AODV 48 [0 ffffffff 3 800] ------- [6:255 -1:255 28 0] [0x2 3 1 [7 0] [0 4]] (REQUEST)
r 0.513577392 _1_ MAC  --- 0 AODV 48 [0 ffffffff 0 800] ------- [0:255 -1:255 29 0] [0x2 2 1 [9 0] [3 4]] (REQUEST)
r 0.513577506 _3_ MAC  --- 0 AODV 48 [0 ffffffff 0 800] ------- [0:255 -1:255 29 0] [0x2 2 1 [9 0] [3 4]] (REQUEST)
r 0.513602392 _1_ RTR  --- 0 AODV 48 [0 ffffffff 0 800] ------- [0:255 -1:255 29 0] [0x2 2 1 [9 0] [3 4]] (REQUEST)
r 0.513602506 _3_ RTR  --- 0 AODV 48 [0 ffffffff 0 800] ------- [0:255 -1:255 29 0] [0x2 2 1 [9 0] [3 4]] (REQUEST)
r 0.513821977 _9_ MAC  --- 0 AODV 48 [0 ffffffff 8 800] ------- [8:255 -1:255 28 0] [0x2 3 1 [9 0] [3 4]] (REQUEST)
D 0.513822039 _5_ MAC  COL 0 AODV 106 [0 ffffffff 8 800] ------- [8:255 -1:255 28 0] [0x2 3 1 [9 0] [3 4]] (REQUEST)
r 0.513822104 _7_ MAC  --- 0 AODV 48 [0 ffffffff 8 800] ------- [8:255 -1:255 28 0] [0x2 3 1 [9 0] [3 4]] (REQUEST)
D 0.513822112 _6_ MAC  COL 0 AODV 106 [0 ffffffff 8 800] ------- [8:255 -1:255 28 0] [0x2 3 1 [9 0] [3 4]] (REQUEST)
r 0.513846977 _9_ RTR  --- 0 AODV 48 [0 ffffffff 8 800] ------- [8:255 -1:255 28 0] [0x2 3 1 [9 0] [3 4]] (REQUEST)
s 0.513846977 _9_ RTR  --- 0 AODV 44 [0 0 0 0] ------- [9:255 3:255 30 8] [0x4 1 [9 4] 10.000000] (REPLY)
r 0.513847104 _7_ RTR  --- 0 AODV 48 [0 ffffffff 8 800] ------- [8:255 -1:255 28 0] [0x2 3 1 [9 0] [3 4]] (REQUEST)
s 0.513912104 _7_ MAC  --- 0 ARP 86 [0 ffffffff 7 806] ------- [REQUEST 7/7 0/2]
r 0.514600544 _5_ MAC  --- 0 ARP 28 [0 ffffffff 7 806] ------- [REQUEST 7/7 0/2]
r 0.514600716 _9_ MAC  --- 0 ARP 28 [0 ffffffff 7 806] ------- [REQUEST 7/7 0/2]
r 0.514600824 _8_ MAC  --- 0 ARP 28 [0 ffffffff 7 806] ------- [REQUEST 7/7 0/2]
r 0.514600843 _2_ MAC  --- 0 ARP 28 [0 ffffffff 7 806] ------- [REQUEST 7/7 0/2]
s 0.514850716 _9_ MAC  --- 0 ARP 86 [0 ffffffff 9 806] ------- [REQUEST 9/9 0/8]
s 0.514850843 _2_ MAC  --- 0 AODV 106 [0 ffffffff 2 800] ------- [2:255 -1:255 27 0] [0x2 4 1 [9 0] [3 4]] (REQUEST)
D 0.514851581 _7_ MAC  COL 0 ARP 86 [0 ffffffff 9 806] ------- [REQUEST 9/9 0/8]
s 0.514940410 _5_ RTR  --- 0 AODV 48 [0 ffffffff 4 800] ------- [5:255 -1:255 28 0] [0x2 3 1 [7 0] [0 4]] (REQUEST)
r 0.515539309 _8_ MAC  --- 0 ARP 28 [0 ffffffff 9 806] ------- [REQUEST 9/9 0/8]
D 0.515699459 _5_ MAC  COL 0 AODV 106 [0 ffffffff 2 800] ------- [2:255 -1:255 27 0] [0x2 4 1 [9 0] [3 4]] (REQUEST)
r 0.515699557 _4_ MAC  --- 0 AODV 48 [0 ffffffff 2 800] ------- [2:255 -1:255 27 0] [0x2 4 1 [9 0] [3 4]] (REQUEST)
D 0.515699581 _7_ MAC  COL 0 AODV 106 [0 ffffffff 2 800] ------- [2:255 -1:255 27 0] [0x2 4 1 [9 0] [3 4]] (REQUEST)
r 0.515699613 _1_ MAC  --- 0 AODV 48 [0 ffffffff 2 800] ------- [2:255 -1:255 27 0] [0x2 4 1 [9 0] [3 4]] (REQUEST)
r 0.515724557 _4_ RTR  --- 0 AODV 48 [0 ffffffff 2 800] ------- [2:255 -1:255 27 0] [0x2 4 1 [9 0] [3 4]] (REQUEST)
r 0.515724613 _1_ RTR  --- 0 AODV 48 [0 ffffffff 2 800] ------- [2:255 -1:255 27 0] [0x2 4 1 [9 0] [3 4]] (REQUEST)
s 0.516173459 _5_ MAC  --- 0 AODV 106 [0 ffffffff 5 800] ------- [5:255 -1:255 28 0] [0x2 3 1 [7 0] [0 4]] (REQUEST)
r 0.517021898 _7_ MAC  --- 0 AODV 48 [0 ffffffff 5 800] ------- [5:255 -1:255 28 0] [0x2 3 1 [7 0] [0 4]] (REQUEST)
r 0.517022075 _2_ MAC  --- 0 AODV 48 [0 ffffffff 5 800] ------- [5:255 -1:255 28 0] [0x2 3 1 [7 0] [0 4]] (REQUEST)
r 0.517022114 _8_ MAC  --- 0 AODV 48 [0 ffffffff 5 800] ------- [5:255 -1:255 28 0] [0x2 3 1 [7 0] [0 4]] (REQUEST)
r 0.517022212 _6_ MAC  --- 0 AODV 48 [0 ffffffff 5 800] ------- [5:255 -1:255 28 0] [0x2 3 1 [7 0] [0 4]] (REQUEST)
r 0.517022242 _4_ MAC  --- 0 AODV 48 [0 ffffffff 5 800] ------- [5:255 -1:255 28 0] [0x2 3 1 [7 0] [0 4]] (REQUEST)
r 0.517046898 _7_ RTR  --- 0 AODV 48 [0 ffffffff 5 800] ------- [5:255 -1:255 28 0] [0x2 3 1 [7 0] [0 4]] (REQUEST)
r 0.517047075 _2_ RTR  --- 0 AODV 48 [0 ffffffff 5 800] ------- [5:255 -1:255 28 0] [0x2 3 1 [7 0] [0 4]] (REQUEST)
r 0.517047114 _8_ RTR  --- 0 AODV 48 [0 ffffffff 5 800] ------- [5:255 -1:255 28 0] [0x2 3 1 [7 0] [0 4]] (REQUEST)
r 0.517047212 _6_ RTR  --- 0 AODV 48 [0 ffffffff 5 800] ------- [5:255 -1:255 28 0] [0x2 3 1 [7 0] [0 4]] (REQUEST)
r 0.517047242 _4_ RTR  --- 0 AODV 48 [0 ffffffff 5 800] ------- [5:255 -1:255 28 0] [0x2 3 1 [7 0] [0 4]] (REQUEST)
s 0.517112212 _6_ MAC  --- 0 AODV 106 [0 ffffffff 6 800] ------- [6:255 -1:255 28 0] [0x2 3 1 [7 0] [0 4]] (REQUEST)
r 0.517960940 _8_ MAC  --- 0 AODV 48 [0 ffffffff 6 800] ------- [6:255 -1:255 28 0] [0x2 3 1 [7 0] [0 4]] (REQUEST)
r 0.517960966 _5_ MAC  --- 0 AODV 48 [0 ffffffff 6 800] ------- [6:255 -1:255 28 0] [0x2 3 1 [7 0] [0 4]] (REQUEST)
r 0.517961035 _3_ MAC  --- 0 AODV 48 [0 ffffffff 6 800] ------- [6:255 -1:255 28 0] [0x2 3 1 [7 0] [0 4]] (REQUEST)
r 0.517985940 _8_ RTR  --- 0 AODV 48 [0 ffffffff 6 800] ------- [6:255 -1:255 28 0] [0x2 3 1 [7 0] [0 4]] (REQUEST)
r 0.517985966 _5_ RTR  --- 0 AODV 48 [0 ffffffff 6 800] ------- [6:255 -1:255 28 0] [0x2 3 1 [7 0] [0 4]] (REQUEST)
r 0.517986035 _3_ RTR  --- 0 AODV 48 [0 ffffffff 6 800] ------- [6:255 -1:255 28 0] [0x2 3 1 [7 0] [0 4]] (REQUEST)
s 0.518250940 _8_ MAC  --- 0 RTS 44 [52e 9 8 0] 
r 0.518603533 _9_ MAC  --- 0 RTS 44 [52e 9 8 0] 
s 0.518613533 _9_ MAC  --- 0 CTS 38 [3f4 8 0 0] 
r 0.518918127 _8_ MAC  --- 0 CTS 38 [3f4 8 0 0] 
s 0.518928127 _8_ MAC  --- 0 ARP 86 [13a 9 8 806] ------- [REPLY 8/8 9/9]
s 0.519126969 _1_ RTR  --- 0 AODV 48 [0 ffffffff 4 800] ------- [1:255 -1:255 28 0] [0x2 3 1 [9 0] [3 4]] (REQUEST)
r 0.519616720 _9_ MAC  --- 0 ARP 28 [13a 9 8 806] ------- [REPLY 8/8 9/9]
s 0.519626720 _9_ MAC  --- 0 ACK 38 [0 8 0 0] 
r 0.519931313 _8_ MAC  --- 0 ACK 38 [0 8 0 0] 
s 0.520040720 _9_ MAC  --- 0 RTS 44 [5ae 8 9 0] 
r 0.520393313 _8_ MAC  --- 0 RTS 44 [5ae 8 9 0] 
s 0.520403313 _8_ MAC  --- 0 CTS 38 [474 9 0 0] 
r 0.520707907 _9_ MAC  --- 0 CTS 38 [474 9 0 0] 
s 0.520717907 _9_ MAC  --- 0 AODV 102 [13a 8 9 800] ------- [9:255 3:255 30 8] [0x4 1 [9 4] 10.000000] (REPLY)
s 0.521243119 _1_ MAC  --- 0 AODV 106 [0 ffffffff 1 800] ------- [1:255 -1:255 28 0] [0x2 3 1 [9 0] [3 4]] (REQUEST)
r 0.521534500 _8_ MAC  --- 0 AODV 44 [13a 8 9 800] ------- [9:255 3:255 30 8] [0x4 1 [9 4] 10.000000] (REPLY)
s 0.521544500 _8_ MAC  --- 0 ACK 38 [0 9 0 0] 
r 0.521559500 _8_ RTR  --- 0 AODV 44 [13a 8 9 800] ------- [9:255 3:255 30 8] [0x4 1 [9 4] 10.000000] (REPLY)
f 0.521559500 _8_ RTR  --- 0 AODV 44 [13a 8 9 800] ------- [9:255 3:255 29 6] [0x4 2 [9 4] 10.000000] (REPLY)
r 0.521849093 _9_ MAC  --- 0 ACK 38 [0 9 0 0] 
D 0.522091689 _4_ MAC  COL 0 AODV 106 [0 ffffffff 1 800] ------- [1:255 -1:255 28 0] [0x2 3 1 [9 0] [3 4]] (REQUEST)
r 0.522091831 _0_ MAC  --- 0 AODV 48 [0 ffffffff 1 800] ------- [1:255 -1:255 28 0] [0x2 3 1 [9 0] [3 4]] (REQUEST)
D 0.522091890 _2_ MAC  COL 0 AODV 106 [0 ffffffff 1 800] ------- [1:255 -1:255 28 0] [0x2 3 1 [9 0] [3 4]] (REQUEST)
r 0.522116831 _0_ RTR  --- 0 AODV 48 [0 ffffffff 1 800] ------- [1:255 -1:255 28 0] [0x2 3 1 [9 0] [3 4]] (REQUEST)
s 0.522545890 _2_ MAC  --- 0 RTS 44 [52e 7 2 0] 
r 0.522898628 _7_ MAC  --- 0 RTS 44 [52e 7 2 0] 
s 0.522908628 _7_ MAC  --- 0 CTS 38 [3f4 2 0 0] 
r 0.523213367 _2_ MAC  --- 0 CTS 38 [3f4 2 0 0] 
s 0.523223367 _2_ MAC  --- 0 ARP 86 [13a 7 2 806] ------- [REPLY 2/2 7/7]
s 0.523733353 _8_ RTR  --- 0 AODV 48 [0 ffffffff 5 800] ------- [8:255 -1:255 27 0] [0x2 4 1 [7 0] [0 4]] (REQUEST)
r 0.523912105 _7_ MAC  --- 0 ARP 28 [13a 7 2 806] ------- [REPLY 2/2 7/7]
s 0.523922105 _7_ MAC  --- 0 ACK 38 [0 2 0 0] 
r 0.524226844 _2_ MAC  --- 0 ACK 38 [0 2 0 0] 
s 0.524456105 _7_ MAC  --- 0 AODV 106 [0 ffffffff 7 800] ------- [7:255 -1:255 27 0] [0x2 4 1 [9 0] [3 4]] (REQUEST)
r 0.525304545 _5_ MAC  --- 0 AODV 48 [0 ffffffff 7 800] ------- [7:255 -1:255 27 0] [0x2 4 1 [9 0] [3 4]] (REQUEST)
r 0.525304717 _9_ MAC  --- 0 AODV 48 [0 ffffffff 7 800] ------- [7:255 -1:255 27 0] [0x2 4 1 [9 0] [3 4]] (REQUEST)
r 0.525304826 _8_ MAC  --- 0 AODV 48 [0 ffffffff 7 800] ------- [7:255 -1:255 27 0] [0x2 4 1 [9 0] [3 4]] (REQUEST)
r 0.525304844 _2_ MAC  --- 0 AODV 48 [0 ffffffff 7 800] ------- [7:255 -1:255 27 0] [0x2 4 1 [9 0] [3 4]] (REQUEST)
r 0.525329545 _5_ RTR  --- 0 AODV 48 [0 ffffffff 7 800] ------- [7:255 -1:255 27 0] [0x2 4 1 [9 0] [3 4]] (REQUEST)
r 0.525329717 _9_ RTR  --- 0 AODV 48 [0 ffffffff 7 800] ------- [7:255 -1:255 27 0] [0x2 4 1 [9 0] [3 4]] (REQUEST)
r 0.525329826 _8_ RTR  --- 0 AODV 48 [0 ffffffff 7 800] ------- [7:255 -1:255 27 0] [0x2 4 1 [9 0] [3 4]] (REQUEST)
r 0.525329844 _2_ RTR  --- 0 AODV 48 [0 ffffffff 7 800] ------- [7:255 -1:255 27 0] [0x2 4 1 [9 0] [3 4]] (REQUEST)
s 0.525414826 _8_ MAC  --- 0 ARP 86 [0 ffffffff 8 806] ------- [REQUEST 8/8 0/6]
r 0.526103419 _9_ MAC  --- 0 ARP 28 [0 ffffffff 8 806] ------- [REQUEST 8/8 0/6]
r 0.526103481 _5_ MAC  --- 0 ARP 28 [0 ffffffff 8 806] ------- [REQUEST 8/8 0/6]
r 0.526103546 _7_ MAC  --- 0 ARP 28 [0 ffffffff 8 806] ------- [REQUEST 8/8 0/6]
r 0.526103553 _6_ MAC  --- 0 ARP 28 [0 ffffffff 8 806] ------- [REQUEST 8/8 0/6]
s 0.526158553 _6_ MAC  --- 0 RTS 44 [52e 8 6 0] 
r 0.526511281 _8_ MAC  --- 0 RTS 44 [52e 8 6 0] 
s 0.526521281 _8_ MAC  --- 0 CTS 38 [3f4 6 0 0] 
r 0.526826008 _6_ MAC  --- 0 CTS 38 [3f4 6 0 0] 
s 0.526836008 _6_ MAC  --- 0 ARP 86 [13a 8 6 806] ------- [REPLY 6/6 8/8]
r 0.527524736 _8_ MAC  --- 0 ARP 28 [13a 8 6 806] ------- [REPLY 6/6 8/8]
s 0.527534736 _8_ MAC  --- 0 ACK 38 [0 6 0 0] 
r 0.527839464 _6_ MAC  --- 0 ACK 38 [0 6 0 0] 
s 0.527959139 _7_ MAC  --- 0 RTS 44 [5ae 2 7 0] 
r 0.528311878 _2_ MAC  --- 0 RTS 44 [5ae 2 7 0] 
s 0.528321878 _2_ MAC  --- 0 CTS 38 [474 7 0 0] 
r 0.528626616 _7_ MAC  --- 0 CTS 38 [474 7 0 0] 
s 0.528636616 _7_ MAC  --- 0 AODV 102 [13a 2 7 800] ------- [7:255 0:255 30 2] [0x4 1 [7 4] 10.000000] (REPLY)
r 0.529453355 _2_ MAC  --- 0 AODV 44 [13a 2 7 800] ------- [7:255 0:255 30 2] [0x4 1 [7 4] 10.000000] (REPLY)
s 0.529463355 _2_ MAC  --- 0 ACK 38 [0 7 0 0] 
r 0.529478355 _2_ RTR  --- 0 AODV 44 [13a 2 7 800] ------- [7:255 0:255 30 2] [0x4 1 [7 4] 10.000000] (REPLY)
f 0.529478355 _2_ RTR  --- 0 AODV 44 [13a 2 7 800] ------- [7:255 0:255 29 4] [0x4 2 [7 4] 10.000000] (REPLY)
r 0.529768093 _7_ MAC  --- 0 ACK 38 [0 7 0 0] 
s 0.530117355 _2_ MAC  --- 0 ARP 86 [0 ffffffff 2 806] ------- [REQUEST 2/2 0/4]
r 0.530805971 _5_ MAC  --- 0 ARP 28 [0 ffffffff 2 806] ------- [REQUEST 2/2 0/4]
r 0.530806069 _4_ MAC  --- 0 ARP 28 [0 ffffffff 2 806] ------- [REQUEST 2/2 0/4]
r 0.530806093 _7_ MAC  --- 0 ARP 28 [0 ffffffff 2 806] ------- [REQUEST 2/2 0/4]
r 0.530806125 _1_ MAC  --- 0 ARP 28 [0 ffffffff 2 806] ------- [REQUEST 2/2 0/4]
s 0.531341069 _4_ MAC  --- 0 RTS 44 [52e 2 4 0] 
r 0.531693784 _2_ MAC  --- 0 RTS 44 [52e 2 4 0] 
s 0.531703784 _2_ MAC  --- 0 CTS 38 [3f4 4 0 0] 
r 0.532008499 _4_ MAC  --- 0 CTS 38 [3f4 4 0 0] 
s 0.532018499 _4_ MAC  --- 0 ARP 86 [13a 2 4 806] ------- [REPLY 4/4 2/2]
r 0.532707213 _2_ MAC  --- 0 ARP 28 [13a 2 4 806] ------- [REPLY 4/4 2/2]
s 0.532717213 _2_ MAC  --- 0 ACK 38 [0 4 0 0] 
r 0.533021928 _4_ MAC  --- 0 ACK 38 [0 4 0 0] 
s 0.533311213 _2_ MAC  --- 0 RTS 44 [5ae 4 2 0] 
r 0.533663928 _4_ MAC  --- 0 RTS 44 [5ae 4 2 0] 
s 0.533673928 _4_ MAC  --- 0 CTS 38 [474 2 0 0] 
r 0.533978643 _2_ MAC  --- 0 CTS 38 [474 2 0 0] 
s 0.533988643 _2_ MAC  --- 0 AODV 102 [13a 4 2 800] ------- [7:255 0:255 29 4] [0x4 2 [7 4] 10.000000] (REPLY)
r 0.534805357 _4_ MAC  --- 0 AODV 44 [13a 4 2 800] ------- [7:255 0:255 29 4] [0x4 2 [7 4] 10.000000] (REPLY)
s 0.534815357 _4_ MAC  --- 0 ACK 38 [0 2 0 0] 
r 0.534830357 _4_ RTR  --- 0 AODV 44 [13a 4 2 800] ------- [7:255 0:255 29 4] [0x4 2 [7 4] 10.000000] (REPLY)
f 0.534830357 _4_ RTR  --- 0 AODV 44 [13a 4 2 800] ------- [7:255 0:255 28 0] [0x4 3 [7 4] 10.000000] (REPLY)
r 0.535120072 _2_ MAC  --- 0 ACK 38 [0 2 0 0] 
s 0.535469357 _4_ MAC  --- 0 ARP 86 [0 ffffffff 4 806] ------- [REQUEST 4/4 0/0]
r 0.536157927 _1_ MAC  --- 0 ARP 28 [0 ffffffff 4 806] ------- [REQUEST 4/4 0/0]
r 0.536158072 _2_ MAC  --- 0 ARP 28 [0 ffffffff 4 806] ------- [REQUEST 4/4 0/0]
r 0.536158118 _0_ MAC  --- 0 ARP 28 [0 ffffffff 4 806] ------- [REQUEST 4/4 0/0]
r 0.536158131 _3_ MAC  --- 0 ARP 28 [0 ffffffff 4 806] ------- [REQUEST 4/4 0/0]
r 0.536158141 _5_ MAC  --- 0 ARP 28 [0 ffffffff 4 806] ------- [REQUEST 4/4 0/0]
s 0.536333118 _0_ MAC  --- 0 RTS 44 [52e 4 0 0] 
r 0.536685878 _4_ MAC  --- 0 RTS 44 [52e 4 0 0] 
s 0.536692680 _8_ MAC  --- 0 AODV 106 [0 ffffffff 8 800] ------- [8:255 -1:255 27 0] [0x2 4 1 [7 0] [0 4]] (REQUEST)
s 0.537473118 _0_ MAC  --- 0 RTS 44 [52e 4 0 0] 
r 0.537541273 _9_ MAC  --- 0 AODV 48 [0 ffffffff 8 800] ------- [8:255 -1:255 27 0] [0x2 4 1 [7 0] [0 4]] (REQUEST)
r 0.537541335 _5_ MAC  --- 0 AODV 48 [0 ffffffff 8 800] ------- [8:255 -1:255 27 0] [0x2 4 1 [7 0] [0 4]] (REQUEST)
r 0.537541400 _7_ MAC  --- 0 AODV 48 [0 ffffffff 8 800] ------- [8:255 -1:255 27 0] [0x2 4 1 [7 0] [0 4]] (REQUEST)
r 0.537541407 _6_ MAC  --- 0 AODV 48 [0 ffffffff 8 800] ------- [8:255 -1:255 27 0] [0x2 4 1 [7 0] [0 4]] (REQUEST)
r 0.537566273 _9_ RTR  --- 0 AODV 48 [0 ffffffff 8 800] ------- [8:255 -1:255 27 0] [0x2 4 1 [7 0] [0 4]] (REQUEST)
r 0.537566335 _5_ RTR  --- 0 AODV 48 [0 ffffffff 8 800] ------- [8:255 -1:255 27 0] [0x2 4 1 [7 0] [0 4]] (REQUEST)
r 0.537566400 _7_ RTR  --- 0 AODV 48 [0 ffffffff 8 800] ------- [8:255 -1:255 27 0] [0x2 4 1 [7 0] [0 4]] (REQUEST)
r 0.537566407 _6_ RTR  --- 0 AODV 48 [0 ffffffff 8 800] ------- [8:255 -1:255 27 0] [0x2 4 1 [7 0] [0 4]] (REQUEST)
s 0.537690680 _8_ MAC  --- 0 RTS 44 [5ae 6 8 0] 
D 0.537692002 _4_ MAC  COL 0 RTS 44 [52e 4 0 0] 
r 0.538043407 _6_ MAC  --- 0 RTS 44 [5ae 6 8 0] 
s 0.538770680 _8_ MAC  --- 0 RTS 44 [5ae 6 8 0] 
r 0.539123407 _6_ MAC  --- 0 RTS 44 [5ae 6 8 0] 
s 0.539133407 _6_ MAC  --- 0 CTS 38 [474 8 0 0] 
r 0.539438135 _8_ MAC  --- 0 CTS 38 [474 8 0 0] 
s 0.539448135 _8_ MAC  --- 0 AODV 102 [13a 6 8 800] ------- [9:255 3:255 29 6] [0x4 2 [9 4] 10.000000] (REPLY)
s 0.540152871 _0_ MAC  --- 0 RTS 44 [52e 4 0 0] 
r 0.540264862 _6_ MAC  --- 0 AODV 44 [13a 6 8 800] ------- [9:255 3:255 29 6] [0x4 2 [9 4] 10.000000] (REPLY)
s 0.540274862 _6_ MAC  --- 0 ACK 38 [0 8 0 0] 
D 0.540275762 _4_ MAC  COL 0 RTS 44 [52e 4 0 0] 
r 0.540289862 _6_ RTR  --- 0 AODV 44 [13a 6 8 800] ------- [9:255 3:255 29 6] [0x4 2 [9 4] 10.000000] (REPLY)
f 0.540289862 _6_ RTR  --- 0 AODV 44 [13a 6 8 800] ------- [9:255 3:255 28 3] [0x4 3 [9 4] 10.000000] (REPLY)
r 0.540579590 _8_ MAC  --- 0 ACK 38 [0 8 0 0] 
s 0.540980335 _6_ MAC  --- 0 ARP 86 [0 ffffffff 6 806] ------- [REQUEST 6/6 0/3]
r 0.541669063 _8_ MAC  --- 0 ARP 28 [0 ffffffff 6 806] ------- [REQUEST 6/6 0/3]
r 0.541669089 _5_ MAC  --- 0 ARP 28 [0 ffffffff 6 806] ------- [REQUEST 6/6 0/3]
r 0.541669158 _3_ MAC  --- 0 ARP 28 [0 ffffffff 6 806] ------- [REQUEST 6/6 0/3]
s 0.541778473 _9_ RTR  --- 0 AODV 48 [0 ffffffff 8 800] ------- [9:255 -1:255 26 0] [0x2 5 1 [7 0] [0 4]] (REQUEST)
s 0.541784158 _3_ MAC  --- 0 RTS 44 [52e 6 3 0] 
r 0.542136981 _6_ MAC  --- 0 RTS 44 [52e 6 3 0] 
s 0.542146981 _6_ MAC  --- 0 CTS 38 [3f4 3 0 0] 
r 0.542451804 _3_ MAC  --- 0 CTS 38 [3f4 3 0 0] 
s 0.542461804 _3_ MAC  --- 0 ARP 86 [13a 6 3 806] ------- [REPLY 3/3 6/6]
r 0.543150627 _6_ MAC  --- 0 ARP 28 [13a 6 3 806] ------- [REPLY 3/3 6/6]
s 0.543160627 _6_ MAC  --- 0 ACK 38 [0 3 0 0] 
r 0.543465450 _3_ MAC  --- 0 ACK 38 [0 3 0 0] 
s 0.543574627 _6_ MAC  --- 0 RTS 44 [5ae 3 6 0] 
r 0.543927450 _3_ MAC  --- 0 RTS 44 [5ae 3 6 0] 
s 0.543937450 _3_ MAC  --- 0 CTS 38 [474 6 0 0] 
r 0.544242273 _6_ MAC  --- 0 CTS 38 [474 6 0 0] 
s 0.544252273 _6_ MAC  --- 0 AODV 102 [13a 3 6 800] ------- [9:255 3:255 28 3] [0x4 3 [9 4] 10.000000] (REPLY)
r 0.545069096 _3_ MAC  --- 0 AODV 44 [13a 3 6 800] ------- [9:255 3:255 28 3] [0x4 3 [9 4] 10.000000] (REPLY)
s 0.545079096 _3_ MAC  --- 0 ACK 38 [0 6 0 0] 
r 0.545094096 _3_ RTR  --- 0 AODV 44 [13a 3 6 800] ------- [9:255 3:255 28 3] [0x4 3 [9 4] 10.000000] (REPLY)
s 0.545094096 _3_ RTR  --- 1 tcp 40 [0 0 0 0] ------- [3:0 9:0 30 6] [0 0] 0 0
r 0.545383919 _6_ MAC  --- 0 ACK 38 [0 6 0 0] 
s 0.545493096 _3_ MAC  --- 0 RTS 44 [58e 6 3 0] 
s 0.545723568 _9_ MAC  --- 0 AODV 106 [0 ffffffff 9 800] ------- [9:255 -1:255 26 0] [0x2 5 1 [7 0] [0 4]] (REQUEST)
D 0.545724863 _6_ MAC  COL 0 RTS 44 [58e 6 3 0] 
D 0.546572161 _8_ MAC  COL 0 AODV 106 [0 ffffffff 9 800] ------- [9:255 -1:255 26 0] [0x2 5 1 [7 0] [0 4]] (REQUEST)
D 0.546572180 _7_ MAC  COL 0 AODV 106 [0 ffffffff 9 800] ------- [9:255 -1:255 26 0] [0x2 5 1 [7 0] [0 4]] (REQUEST)
s 0.546873096 _3_ MAC  --- 0 RTS 44 [58e 6 3 0] 
r 0.547225919 _6_ MAC  --- 0 RTS 44 [58e 6 3 0] 
s 0.547235919 _6_ MAC  --- 0 CTS 38 [454 3 0 0] 
r 0.547540742 _3_ MAC  --- 0 CTS 38 [454 3 0 0] 
s 0.547550742 _3_ MAC  --- 1 tcp 98 [13a 6 3 800] ------- [3:0 9:0 30 6] [0 0] 0 0
r 0.548335565 _6_ MAC  --- 1 tcp 40 [13a 6 3 800] ------- [3:0 9:0 30 6] [0 0] 1 0
s 0.548345565 _6_ MAC  --- 0 ACK 38 [0 3 0 0] 
r 0.548360565 _6_ RTR  --- 1 tcp 40 [13a 6 3 800] ------- [3:0 9:0 30 6] [0 0] 1 0
f 0.548360565 _6_ RTR  --- 1 tcp 40 [13a 6 3 800] ------- [3:0 9:0 29 8] [0 0] 1 0
r 0.548650388 _3_ MAC  --- 0 ACK 38 [0 3 0 0] 
s 0.549239565 _6_ MAC  --- 0 RTS 44 [58e 8 6 0] 
r 0.549592292 _8_ MAC  --- 0 RTS 44 [58e 8 6 0] 
s 0.549602292 _8_ MAC  --- 0 CTS 38 [454 6 0 0] 
r 0.549907020 _6_ MAC  --- 0 CTS 38 [454 6 0 0] 
s 0.549917020 _6_ MAC  --- 1 tcp 98 [13a 8 6 800] ------- [3:0 9:0 29 8] [0 0] 1 0
r 0.550701748 _8_ MAC  --- 1 tcp 40 [13a 8 6 800] ------- [3:0 9:0 29 8] [0 0] 2 0
s 0.550711748 _8_ MAC  --- 0 ACK 38 [0 6 0 0] 
r 0.550726748 _8_ RTR  --- 1 tcp 40 [13a 8 6 800] ------- [3:0 9:0 29 8] [0 0] 2 0
f 0.550726748 _8_ RTR  --- 1 tcp 40 [13a 8 6 800] ------- [3:0 9:0 28 9] [0 0] 2 0
r 0.551016475 _6_ MAC  --- 0 ACK 38 [0 6 0 0] 
s 0.551365748 _8_ MAC  --- 0 RTS 44 [58e 9 8 0] 
r 0.551718341 _9_ MAC  --- 0 RTS 44 [58e 9 8 0] 
s 0.551728341 _9_ MAC  --- 0 CTS 38 [454 8 0 0] 
r 0.552032934 _8_ MAC  --- 0 CTS 38 [454 8 0 0] 
s 0.552042934 _8_ MAC  --- 1 tcp 98 [13a 9 8 800] ------- [3:0 9:0 28 9] [0 0] 2 0
r 0.552827528 _9_ MAC  --- 1 tcp 40 [13a 9 8 800] ------- [3:0 9:0 28 9] [0 0] 3 0
s 0.552837528 _9_ MAC  --- 0 ACK 38 [0 8 0 0] 
r 0.552852528 _9_ AGT  --- 1 tcp 40 [13a 9 8 800] ------- [3:0 9:0 28 9] [0 0] 3 0
s 0.552852528 _9_ AGT  --- 2 ack 40 [0 0 0 0] ------- [9:0 3:0 32 0] [0 0] 0 0
r 0.552852528 _9_ RTR  --- 2 ack 40 [0 0 0 0] ------- [9:0 3:0 32 0] [0 0] 0 0
s 0.552852528 _9_ RTR  --- 2 ack 40 [0 0 0 0] ------- [9:0 3:0 30 8] [0 0] 0 0
r 0.553142121 _8_ MAC  --- 0 ACK 38 [0 8 0 0] 
s 0.553531528 _9_ MAC  --- 0 RTS 44 [58e 8 9 0] 
r 0.553884121 _8_ MAC  --- 0 RTS 44 [58e 8 9 0] 
s 0.553894121 _8_ MAC  --- 0 CTS 38 [454 9 0 0] 
r 0.554198714 _9_ MAC  --- 0 CTS 38 [454 9 0 0] 
s 0.554208714 _9_ MAC  --- 2 ack 98 [13a 8 9 800] ------- [9:0 3:0 30 8] [0 0] 0 0
s 0.554956484 _0_ MAC  --- 0 RTS 44 [52e 4 0 0] 
r 0.554993308 _8_ MAC  --- 2 ack 40 [13a 8 9 800] ------- [9:0 3:0 30 8] [0 0] 1 0