n -t * -s 0  -x 442 -y 426 -Z 0 -z 20  -v circle -c black
n -t * -s 1  -x 588 -y 425 -Z 0 -z 20  -v circle -c black
n -t * -s 2  -x 526 -y 527 -Z 0 -z 20  -v circle -c black
n -t * -s 3  -x 628 -y 543 -Z 0 -z 20  -v circle -c black
n -t * -s 4  -x 741 -y 529 -Z 0 -z 20  -v circle -c black
n -t * -s 5  -x 734 -y 434 -Z 0 -z 20  -v circle -c black
n -t * -s 6  -x 903 -y 434 -Z 0 -z 20  -v circle -c black
n -t * -s 7  -x 777 -y 340 -Z 0 -z 20  -v circle -c black
n -t * -s 8  -x 678 -y 294 -Z 0 -z 20  -v circle -c black
n -t * -s 9  -x 589 -y 282 -Z 0 -z 20  -v circle -c black
n -t * -s 10  -x 482 -y 294 -Z 0 -z 20  -v circle -c black
n -t * -s 11  -x 405 -y 338 -Z 0 -z 20  -v circle -c black
n -t * -s 12  -x 745 -y 155 -Z 0 -z 20  -v circle -c black
n -t * -s 13  -x 591 -y 128 -Z 0 -z 20  -v circle -c black
n -t * -s 14  -x 508 -y 183 -Z 0 -z 20  -v circle -c black
n -t * -s 15  -x 883 -y 291 -Z 0 -z 20  -v circle -c black
V -t * -v 1.0a5 -a 0
W -t * -x 877 -y 3345
A -t * -n 1 -p 0 -o 0x7fffffff -c 30 -a 1
A -t * -h 1 -m 1073741823 -s 0
n -t 0 -s 0 -S DLABEL -l "SOURCE 1" -L ""
n -t 0 -s 0 -S COLOR -c blue -o blue -i blue -I blue
n -t 0 -s 6 -S DLABEL -l "DESTINATION 1" -L ""
n -t 0 -s 6 -S COLOR -c blue -o blue -i blue -I blue
n -t 0 -s 14 -S DLABEL -l "SOURCE 2" -L ""
n -t 0 -s 14 -S COLOR -c red -o red -i red -I red
n -t 0 -s 15 -S DLABEL -l "DESTINATION 2" -L ""
n -t 0 -s 15 -S COLOR -c red -o red -i red -I red
+ -t 1.000000000 -s 0 -d -1 -p cbr -e 1000 -c 2 -a 0 -i 0 -k AGT 
- -t 1.000000000 -s 0 -d -1 -p cbr -e 1000 -c 2 -a 0 -i 0 -k AGT
h -t 1.000000000 -s 0 -d -1 -p cbr -e 1000 -c 2 -a 0 -i 0 -k AGT
+ -t 1.000000000 -s 14 -d -1 -p cbr -e 1000 -c 2 -a 0 -i 2 -k AGT 
- -t 1.000000000 -s 14 -d -1 -p cbr -e 1000 -c 2 -a 0 -i 2 -k AGT
h -t 1.000000000 -s 14 -d -1 -p cbr -e 1000 -c 2 -a 0 -i 2 -k AGT
+ -t 1.003712390 -s 0 -d -1 -p DSR -e 32 -c 2 -a 0 -i 1 -k RTR 
- -t 1.003712390 -s 0 -d -1 -p DSR -e 32 -c 2 -a 0 -i 1 -k RTR
h -t 1.003712390 -s 0 -d -1 -p DSR -e 32 -c 2 -a 0 -i 1 -k RTR
+ -t 1.003807390 -s 0 -d -1 -p DSR -e 90 -c 2 -a 0 -i 1 -k MAC 
- -t 1.003807390 -s 0 -d -1 -p DSR -e 90 -c 2 -a 0 -i 1 -k MAC
h -t 1.003807390 -s 0 -d -1 -p DSR -e 90 -c 2 -a 0 -i 1 -k MAC
r -t 1.004527708 -s 11 -d -1 -p DSR -e 32 -c 2 -a 0 -i 1 -k MAC
r -t 1.004527828 -s 2 -d -1 -p DSR -e 32 -c 2 -a 0 -i 1 -k MAC
r -t 1.004527850 -s 10 -d -1 -p DSR -e 32 -c 2 -a 0 -i 1 -k MAC
r -t 1.004527876 -s 1 -d -1 -p DSR -e 32 -c 2 -a 0 -i 1 -k MAC
r -t 1.004528076 -s 9 -d -1 -p DSR -e 32 -c 2 -a 0 -i 1 -k MAC
r -t 1.004528122 -s 3 -d -1 -p DSR -e 32 -c 2 -a 0 -i 1 -k MAC
+ -t 1.009871041 -s 14 -d -1 -p DSR -e 32 -c 2 -a 0 -i 3 -k RTR 
- -t 1.009871041 -s 14 -d -1 -p DSR -e 32 -c 2 -a 0 -i 3 -k RTR
h -t 1.009871041 -s 14 -d -1 -p DSR -e 32 -c 2 -a 0 -i 3 -k RTR
+ -t 1.009986041 -s 14 -d -1 -p DSR -e 90 -c 2 -a 0 -i 3 -k MAC 
- -t 1.009986041 -s 14 -d -1 -p DSR -e 90 -c 2 -a 0 -i 3 -k MAC
h -t 1.009986041 -s 14 -d -1 -p DSR -e 90 -c 2 -a 0 -i 3 -k MAC
r -t 1.010706373 -s 13 -d -1 -p DSR -e 32 -c 2 -a 0 -i 3 -k MAC
r -t 1.010706421 -s 10 -d -1 -p DSR -e 32 -c 2 -a 0 -i 3 -k MAC
r -t 1.010706467 -s 9 -d -1 -p DSR -e 32 -c 2 -a 0 -i 3 -k MAC
r -t 1.010706661 -s 11 -d -1 -p DSR -e 32 -c 2 -a 0 -i 3 -k MAC
r -t 1.010706718 -s 8 -d -1 -p DSR -e 32 -c 2 -a 0 -i 3 -k MAC
r -t 1.010706836 -s 12 -d -1 -p DSR -e 32 -c 2 -a 0 -i 3 -k MAC
+ -t 1.050000000 -s 0 -d -1 -p cbr -e 1000 -c 2 -a 0 -i 6 -k AGT 
- -t 1.050000000 -s 0 -d -1 -p cbr -e 1000 -c 2 -a 0 -i 6 -k AGT
h -t 1.050000000 -s 0 -d -1 -p cbr -e 1000 -c 2 -a 0 -i 6 -k AGT
+ -t 1.050000000 -s 14 -d -1 -p cbr -e 1000 -c 2 -a 0 -i 8 -k AGT 
- -t 1.050000000 -s 14 -d -1 -p cbr -e 1000 -c 2 -a 0 -i 8 -k AGT
h -t 1.050000000 -s 14 -d -1 -p cbr -e 1000 -c 2 -a 0 -i 8 -k AGT
+ -t 1.050325818 -s 14 -d -1 -p DSR -e 32 -c 2 -a 0 -i 9 -k RTR 
- -t 1.050325818 -s 14 -d -1 -p DSR -e 32 -c 2 -a 0 -i 9 -k RTR
h -t 1.050325818 -s 14 -d -1 -p DSR -e 32 -c 2 -a 0 -i 9 -k RTR
+ -t 1.050880818 -s 14 -d -1 -p DSR -e 90 -c 2 -a 0 -i 9 -k MAC 
- -t 1.050880818 -s 14 -d -1 -p DSR -e 90 -c 2 -a 0 -i 9 -k MAC
h -t 1.050880818 -s 14 -d -1 -p DSR -e 90 -c 2 -a 0 -i 9 -k MAC
r -t 1.051601150 -s 13 -d -1 -p DSR -e 32 -c 2 -a 0 -i 9 -k MAC
r -t 1.051601198 -s 10 -d -1 -p DSR -e 32 -c 2 -a 0 -i 9 -k MAC
r -t 1.051601244 -s 9 -d -1 -p DSR -e 32 -c 2 -a 0 -i 9 -k MAC
r -t 1.051601438 -s 11 -d -1 -p DSR -e 32 -c 2 -a 0 -i 9 -k MAC
r -t 1.051601495 -s 8 -d -1 -p DSR -e 32 -c 2 -a 0 -i 9 -k MAC
r -t 1.051601613 -s 12 -d -1 -p DSR -e 32 -c 2 -a 0 -i 9 -k MAC
+ -t 1.053476919 -s 10 -d -1 -p DSR -e 48 -c 2 -a 0 -i 9 -k RTR 
- -t 1.053476919 -s 10 -d -1 -p DSR -e 48 -c 2 -a 0 -i 9 -k RTR
h -t 1.053476919 -s 10 -d -1 -p DSR -e 48 -c 2 -a 0 -i 9 -k RTR
+ -t 1.053551919 -s 10 -d -1 -p DSR -e 106 -c 2 -a 0 -i 9 -k MAC 
- -t 1.053551919 -s 10 -d -1 -p DSR -e 106 -c 2 -a 0 -i 9 -k MAC
h -t 1.053551919 -s 10 -d -1 -p DSR -e 106 -c 2 -a 0 -i 9 -k MAC
+ -t 1.053747344 -s 11 -d -1 -p DSR -e 48 -c 2 -a 0 -i 9 -k RTR 
- -t 1.053747344 -s 11 -d -1 -p DSR -e 48 -c 2 -a 0 -i 9 -k RTR
h -t 1.053747344 -s 11 -d -1 -p DSR -e 48 -c 2 -a 0 -i 9 -k RTR
r -t 1.054400215 -s 11 -d -1 -p DSR -e 48 -c 2 -a 0 -i 9 -k MAC
r -t 1.054400278 -s 9 -d -1 -p DSR -e 48 -c 2 -a 0 -i 9 -k MAC
r -t 1.054400299 -s 14 -d -1 -p DSR -e 48 -c 2 -a 0 -i 9 -k MAC
r -t 1.054400379 -s 0 -d -1 -p DSR -e 48 -c 2 -a 0 -i 9 -k MAC
r -t 1.054400481 -s 1 -d -1 -p DSR -e 48 -c 2 -a 0 -i 9 -k MAC
r -t 1.054400573 -s 8 -d -1 -p DSR -e 48 -c 2 -a 0 -i 9 -k MAC
r -t 1.054400581 -s 13 -d -1 -p DSR -e 48 -c 2 -a 0 -i 9 -k MAC
r -t 1.054400710 -s 2 -d -1 -p DSR -e 48 -c 2 -a 0 -i 9 -k MAC
+ -t 1.054610215 -s 11 -d -1 -p DSR -e 106 -c 2 -a 0 -i 9 -k MAC 
- -t 1.054610215 -s 11 -d -1 -p DSR -e 106 -c 2 -a 0 -i 9 -k MAC
h -t 1.054610215 -s 11 -d -1 -p DSR -e 106 -c 2 -a 0 -i 9 -k MAC
r -t 1.055458511 -s 10 -d -1 -p DSR -e 48 -c 2 -a 0 -i 9 -k MAC
r -t 1.055458533 -s 0 -d -1 -p DSR -e 48 -c 2 -a 0 -i 9 -k MAC
r -t 1.055458835 -s 14 -d -1 -p DSR -e 48 -c 2 -a 0 -i 9 -k MAC
r -t 1.055458856 -s 9 -d -1 -p DSR -e 48 -c 2 -a 0 -i 9 -k MAC
r -t 1.055458890 -s 1 -d -1 -p DSR -e 48 -c 2 -a 0 -i 9 -k MAC
r -t 1.055458963 -s 2 -d -1 -p DSR -e 48 -c 2 -a 0 -i 9 -k MAC
+ -t 1.056468259 -s 13 -d -1 -p DSR -e 48 -c 2 -a 0 -i 9 -k RTR 
- -t 1.056468259 -s 13 -d -1 -p DSR -e 48 -c 2 -a 0 -i 9 -k RTR
h -t 1.056468259 -s 13 -d -1 -p DSR -e 48 -c 2 -a 0 -i 9 -k RTR
+ -t 1.056623259 -s 13 -d -1 -p DSR -e 106 -c 2 -a 0 -i 9 -k MAC 
- -t 1.056623259 -s 13 -d -1 -p DSR -e 106 -c 2 -a 0 -i 9 -k MAC
h -t 1.056623259 -s 13 -d -1 -p DSR -e 106 -c 2 -a 0 -i 9 -k MAC
+ -t 1.056975677 -s 2 -d -1 -p DSR -e 68 -c 2 -a 0 -i 9 -k RTR 
- -t 1.056975677 -s 2 -d -1 -p DSR -e 68 -c 2 -a 0 -i 9 -k RTR
h -t 1.056975677 -s 2 -d -1 -p DSR -e 68 -c 2 -a 0 -i 9 -k RTR
r -t 1.057471591 -s 14 -d -1 -p DSR -e 48 -c 2 -a 0 -i 9 -k MAC
r -t 1.057471772 -s 9 -d -1 -p DSR -e 48 -c 2 -a 0 -i 9 -k MAC
r -t 1.057471780 -s 12 -d -1 -p DSR -e 48 -c 2 -a 0 -i 9 -k MAC
r -t 1.057471884 -s 8 -d -1 -p DSR -e 48 -c 2 -a 0 -i 9 -k MAC
r -t 1.057471921 -s 10 -d -1 -p DSR -e 48 -c 2 -a 0 -i 9 -k MAC
+ -t 1.058066607 -s 2 -d -1 -p DSR -e 126 -c 2 -a 0 -i 9 -k MAC 
- -t 1.058066607 -s 2 -d -1 -p DSR -e 126 -c 2 -a 0 -i 9 -k MAC
h -t 1.058066607 -s 2 -d -1 -p DSR -e 126 -c 2 -a 0 -i 9 -k MAC
r -t 1.059074951 -s 3 -d -1 -p DSR -e 68 -c 2 -a 0 -i 9 -k MAC
r -t 1.059075004 -s 1 -d -1 -p DSR -e 68 -c 2 -a 0 -i 9 -k MAC
r -t 1.059075044 -s 0 -d -1 -p DSR -e 68 -c 2 -a 0 -i 9 -k MAC
r -t 1.059075323 -s 4 -d -1 -p DSR -e 68 -c 2 -a 0 -i 9 -k MAC
r -t 1.059075355 -s 11 -d -1 -p DSR -e 68 -c 2 -a 0 -i 9 -k MAC
r -t 1.059075366 -s 5 -d -1 -p DSR -e 68 -c 2 -a 0 -i 9 -k MAC
r -t 1.059075397 -s 10 -d -1 -p DSR -e 68 -c 2 -a 0 -i 9 -k MAC
+ -t 1.059213637 -s 8 -d -1 -p DSR -e 48 -c 2 -a 0 -i 9 -k RTR 
- -t 1.059213637 -s 8 -d -1 -p DSR -e 48 -c 2 -a 0 -i 9 -k RTR
h -t 1.059213637 -s 8 -d -1 -p DSR -e 48 -c 2 -a 0 -i 9 -k RTR
+ -t 1.059371892 -s 9 -d -1 -p DSR -e 48 -c 2 -a 0 -i 9 -k RTR 
- -t 1.059371892 -s 9 -d -1 -p DSR -e 48 -c 2 -a 0 -i 9 -k RTR
h -t 1.059371892 -s 9 -d -1 -p DSR -e 48 -c 2 -a 0 -i 9 -k RTR
+ -t 1.059500331 -s 0 -d -1 -p DSR -e 68 -c 2 -a 0 -i 9 -k RTR 
- -t 1.059500331 -s 0 -d -1 -p DSR -e 68 -c 2 -a 0 -i 9 -k RTR
h -t 1.059500331 -s 0 -d -1 -p DSR -e 68 -c 2 -a 0 -i 9 -k RTR
+ -t 1.059595331 -s 0 -d -1 -p DSR -e 126 -c 2 -a 0 -i 9 -k MAC 
- -t 1.059595331 -s 0 -d -1 -p DSR -e 126 -c 2 -a 0 -i 9 -k MAC
h -t 1.059595331 -s 0 -d -1 -p DSR -e 126 -c 2 -a 0 -i 9 -k MAC
+ -t 1.059732291 -s 0 -d -1 -p DSR -e 32 -c 2 -a 0 -i 7 -k RTR 
- -t 1.059732291 -s 0 -d -1 -p DSR -e 32 -c 2 -a 0 -i 7 -k RTR
h -t 1.059732291 -s 0 -d -1 -p DSR -e 32 -c 2 -a 0 -i 7 -k RTR
+ -t 1.060215509 -s 12 -d -1 -p DSR -e 48 -c 2 -a 0 -i 9 -k RTR 
- -t 1.060215509 -s 12 -d -1 -p DSR -e 48 -c 2 -a 0 -i 9 -k RTR
h -t 1.060215509 -s 12 -d -1 -p DSR -e 48 -c 2 -a 0 -i 9 -k RTR
r -t 1.060603650 -s 11 -d -1 -p DSR -e 68 -c 2 -a 0 -i 9 -k MAC
r -t 1.060603769 -s 2 -d -1 -p DSR -e 68 -c 2 -a 0 -i 9 -k MAC
r -t 1.060603791 -s 10 -d -1 -p DSR -e 68 -c 2 -a 0 -i 9 -k MAC
r -t 1.060603818 -s 1 -d -1 -p DSR -e 68 -c 2 -a 0 -i 9 -k MAC
r -t 1.060604017 -s 9 -d -1 -p DSR -e 68 -c 2 -a 0 -i 9 -k MAC
r -t 1.060604064 -s 3 -d -1 -p DSR -e 68 -c 2 -a 0 -i 9 -k MAC
+ -t 1.060733331 -s 0 -d -1 -p DSR -e 90 -c 2 -a 0 -i 7 -k MAC 
- -t 1.060733331 -s 0 -d -1 -p DSR -e 90 -c 2 -a 0 -i 7 -k MAC
h -t 1.060733331 -s 0 -d -1 -p DSR -e 90 -c 2 -a 0 -i 7 -k MAC
+ -t 1.060734017 -s 9 -d -1 -p DSR -e 106 -c 2 -a 0 -i 9 -k MAC 
- -t 1.060734017 -s 9 -d -1 -p DSR -e 106 -c 2 -a 0 -i 9 -k MAC
h -t 1.060734017 -s 9 -d -1 -p DSR -e 106 -c 2 -a 0 -i 9 -k MAC
d -t 1.060734376 -s 10 -d -1 -p DSR -e 90 -c 2 -a 0 -i 7 -k MAC
d -t 1.060734494 -s 1 -d -1 -p DSR -e 90 -c 2 -a 0 -i 7 -k MAC
d -t 1.060734897 -s 3 -d -1 -p DSR -e 90 -c 2 -a 0 -i 7 -k MAC
r -t 1.061453650 -s 11 -d -1 -p DSR -e 32 -c 2 -a 0 -i 7 -k MAC
r -t 1.061453769 -s 2 -d -1 -p DSR -e 32 -c 2 -a 0 -i 7 -k MAC
d -t 1.061582317 -s 8 -d -1 -p DSR -e 106 -c 2 -a 0 -i 9 -k MAC
d -t 1.061582376 -s 10 -d -1 -p DSR -e 106 -c 2 -a 0 -i 9 -k MAC
d -t 1.061582444 -s 14 -d -1 -p DSR -e 106 -c 2 -a 0 -i 9 -k MAC
d -t 1.061582494 -s 1 -d -1 -p DSR -e 106 -c 2 -a 0 -i 9 -k MAC
d -t 1.061582531 -s 13 -d -1 -p DSR -e 106 -c 2 -a 0 -i 9 -k MAC
d -t 1.061582673 -s 7 -d -1 -p DSR -e 106 -c 2 -a 0 -i 9 -k MAC
d -t 1.061582688 -s 12 -d -1 -p DSR -e 106 -c 2 -a 0 -i 9 -k MAC
d -t 1.061582718 -s 5 -d -1 -p DSR -e 106 -c 2 -a 0 -i 9 -k MAC
+ -t 1.062056317 -s 8 -d -1 -p DSR -e 106 -c 2 -a 0 -i 9 -k MAC 
- -t 1.062056317 -s 8 -d -1 -p DSR -e 106 -c 2 -a 0 -i 9 -k MAC
h -t 1.062056317 -s 8 -d -1 -p DSR -e 106 -c 2 -a 0 -i 9 -k MAC
r -t 1.062904616 -s 9 -d -1 -p DSR -e 48 -c 2 -a 0 -i 9 -k MAC
r -t 1.062904681 -s 7 -d -1 -p DSR -e 48 -c 2 -a 0 -i 9 -k MAC
r -t 1.062904819 -s 5 -d -1 -p DSR -e 48 -c 2 -a 0 -i 9 -k MAC
r -t 1.062904831 -s 12 -d -1 -p DSR -e 48 -c 2 -a 0 -i 9 -k MAC
r -t 1.062904847 -s 1 -d -1 -p DSR -e 48 -c 2 -a 0 -i 9 -k MAC
r -t 1.062904941 -s 13 -d -1 -p DSR -e 48 -c 2 -a 0 -i 9 -k MAC
r -t 1.062904970 -s 10 -d -1 -p DSR -e 48 -c 2 -a 0 -i 9 -k MAC
r -t 1.062904993 -s 14 -d -1 -p DSR -e 48 -c 2 -a 0 -i 9 -k MAC
r -t 1.062905000 -s 15 -d -1 -p DSR -e 48 -c 2 -a 0 -i 9 -k MAC
r -t 1.062905128 -s 4 -d -1 -p DSR -e 48 -c 2 -a 0 -i 9 -k MAC
+ -t 1.063174831 -s 12 -d -1 -p DSR -e 106 -c 2 -a 0 -i 9 -k MAC 
- -t 1.063174831 -s 12 -d -1 -p DSR -e 106 -c 2 -a 0 -i 9 -k MAC
h -t 1.063174831 -s 12 -d -1 -p DSR -e 106 -c 2 -a 0 -i 9 -k MAC
+ -t 1.063464020 -s 15 -d 8 -p DSR -e 52 -c 2 -a 0 -i 10 -k RTR 
- -t 1.063464020 -s 15 -d 8 -p DSR -e 52 -c 2 -a 0 -i 10 -k RTR
h -t 1.063464020 -s 15 -d 8 -p DSR -e 52 -c 2 -a 0 -i 10 -k RTR
+ -t 1.063477785 -s 1 -d -1 -p DSR -e 68 -c 2 -a 0 -i 9 -k RTR 
- -t 1.063477785 -s 1 -d -1 -p DSR -e 68 -c 2 -a 0 -i 9 -k RTR
h -t 1.063477785 -s 1 -d -1 -p DSR -e 68 -c 2 -a 0 -i 9 -k RTR
+ -t 1.063721868 -s 5 -d -1 -p DSR -e 92 -c 2 -a 0 -i 9 -k RTR 
- -t 1.063721868 -s 5 -d -1 -p DSR -e 92 -c 2 -a 0 -i 9 -k RTR
h -t 1.063721868 -s 5 -d -1 -p DSR -e 92 -c 2 -a 0 -i 9 -k RTR
r -t 1.064023345 -s 8 -d -1 -p DSR -e 48 -c 2 -a 0 -i 9 -k MAC
r -t 1.064023352 -s 13 -d -1 -p DSR -e 48 -c 2 -a 0 -i 9 -k MAC
r -t 1.064023457 -s 7 -d -1 -p DSR -e 48 -c 2 -a 0 -i 9 -k MAC
r -t 1.064023477 -s 15 -d -1 -p DSR -e 48 -c 2 -a 0 -i 9 -k MAC
r -t 1.064023502 -s 9 -d -1 -p DSR -e 48 -c 2 -a 0 -i 9 -k MAC
r -t 1.064023627 -s 14 -d -1 -p DSR -e 48 -c 2 -a 0 -i 9 -k MAC
+ -t 1.064153477 -s 15 -d -1 -p ARP -e 86 -c 2 -a 0 -i 0 -k MAC 
- -t 1.064153477 -s 15 -d -1 -p ARP -e 86 -c 2 -a 0 -i 0 -k MAC
h -t 1.064153477 -s 15 -d -1 -p ARP -e 86 -c 2 -a 0 -i 0 -k MAC
r -t 1.064841866 -s 7 -d -1 -p ARP -e 28 -c 2 -a 0 -i 0 -k MAC
r -t 1.064841958 -s 6 -d -1 -p ARP -e 28 -c 2 -a 0 -i 0 -k MAC
r -t 1.064842123 -s 12 -d -1 -p ARP -e 28 -c 2 -a 0 -i 0 -k MAC
r -t 1.064842160 -s 8 -d -1 -p ARP -e 28 -c 2 -a 0 -i 0 -k MAC
r -t 1.064842165 -s 5 -d -1 -p ARP -e 28 -c 2 -a 0 -i 0 -k MAC
+ -t 1.065019881 -s 2 -d -1 -p DSR -e 48 -c 2 -a 0 -i 7 -k RTR 
- -t 1.065019881 -s 2 -d -1 -p DSR -e 48 -c 2 -a 0 -i 7 -k RTR
h -t 1.065019881 -s 2 -d -1 -p DSR -e 48 -c 2 -a 0 -i 7 -k RTR
+ -t 1.065032165 -s 5 -d -1 -p DSR -e 150 -c 2 -a 0 -i 9 -k MAC 
- -t 1.065032165 -s 5 -d -1 -p DSR -e 150 -c 2 -a 0 -i 9 -k MAC
h -t 1.065032165 -s 5 -d -1 -p DSR -e 150 -c 2 -a 0 -i 9 -k MAC
+ -t 1.065624604 -s 4 -d -1 -p DSR -e 92 -c 2 -a 0 -i 9 -k RTR 
- -t 1.065624604 -s 4 -d -1 -p DSR -e 92 -c 2 -a 0 -i 9 -k RTR
h -t 1.065624604 -s 4 -d -1 -p DSR -e 92 -c 2 -a 0 -i 9 -k RTR
+ -t 1.065640663 -s 7 -d -1 -p DSR -e 68 -c 2 -a 0 -i 9 -k RTR 
- -t 1.065640663 -s 7 -d -1 -p DSR -e 68 -c 2 -a 0 -i 9 -k RTR
h -t 1.065640663 -s 7 -d -1 -p DSR -e 68 -c 2 -a 0 -i 9 -k RTR
r -t 1.066232483 -s 4 -d -1 -p DSR -e 92 -c 2 -a 0 -i 9 -k MAC
r -t 1.066232510 -s 7 -d -1 -p DSR -e 92 -c 2 -a 0 -i 9 -k MAC
r -t 1.066232653 -s 1 -d -1 -p DSR -e 92 -c 2 -a 0 -i 9 -k MAC
r -t 1.066232668 -s 8 -d -1 -p DSR -e 92 -c 2 -a 0 -i 9 -k MAC
r -t 1.066232672 -s 3 -d -1 -p DSR -e 92 -c 2 -a 0 -i 9 -k MAC
r -t 1.066232729 -s 6 -d -1 -p DSR -e 92 -c 2 -a 0 -i 9 -k MAC
r -t 1.066232854 -s 15 -d -1 -p DSR -e 92 -c 2 -a 0 -i 9 -k MAC
r -t 1.066232866 -s 9 -d -1 -p DSR -e 92 -c 2 -a 0 -i 9 -k MAC
r -t 1.066232925 -s 2 -d -1 -p DSR -e 92 -c 2 -a 0 -i 9 -k MAC
+ -t 1.066342510 -s 7 -d -1 -p DSR -e 126 -c 2 -a 0 -i 9 -k MAC 
- -t 1.066342510 -s 7 -d -1 -p DSR -e 126 -c 2 -a 0 -i 9 -k MAC
h -t 1.066342510 -s 7 -d -1 -p DSR -e 126 -c 2 -a 0 -i 9 -k MAC
r -t 1.067350854 -s 5 -d -1 -p DSR -e 68 -c 2 -a 0 -i 9 -k MAC
r -t 1.067350874 -s 8 -d -1 -p DSR -e 68 -c 2 -a 0 -i 9 -k MAC
r -t 1.067350899 -s 15 -d -1 -p DSR -e 68 -c 2 -a 0 -i 9 -k MAC
r -t 1.067351034 -s 6 -d -1 -p DSR -e 68 -c 2 -a 0 -i 9 -k MAC
r -t 1.067351136 -s 12 -d -1 -p DSR -e 68 -c 2 -a 0 -i 9 -k MAC
r -t 1.067351151 -s 4 -d -1 -p DSR -e 68 -c 2 -a 0 -i 9 -k MAC
r -t 1.067351166 -s 9 -d -1 -p DSR -e 68 -c 2 -a 0 -i 9 -k MAC
r -t 1.067351201 -s 1 -d -1 -p DSR -e 68 -c 2 -a 0 -i 9 -k MAC
+ -t 1.067396853 -s 11 -d -1 -p DSR -e 48 -c 2 -a 0 -i 7 -k RTR 
- -t 1.067396853 -s 11 -d -1 -p DSR -e 48 -c 2 -a 0 -i 7 -k RTR
h -t 1.067396853 -s 11 -d -1 -p DSR -e 48 -c 2 -a 0 -i 7 -k RTR
+ -t 1.067480874 -s 8 -d -1 -p RTS -e 44 -c 2 -a 0 -i 0 -k MAC 
- -t 1.067480874 -s 8 -d -1 -p RTS -e 44 -c 2 -a 0 -i 0 -k MAC
h -t 1.067480874 -s 8 -d -1 -p RTS -e 44 -c 2 -a 0 -i 0 -k MAC
r -t 1.067833557 -s 15 -d -1 -p RTS -e 44 -c 2 -a 0 -i 0 -k MAC
+ -t 1.067843557 -s 15 -d -1 -p CTS -e 38 -c 2 -a 0 -i 0 -k MAC 
- -t 1.067843557 -s 15 -d -1 -p CTS -e 38 -c 2 -a 0 -i 0 -k MAC
h -t 1.067843557 -s 15 -d -1 -p CTS -e 38 -c 2 -a 0 -i 0 -k MAC
r -t 1.068148241 -s 8 -d -1 -p CTS -e 38 -c 2 -a 0 -i 0 -k MAC
+ -t 1.068158241 -s 8 -d -1 -p ARP -e 86 -c 2 -a 0 -i 0 -k MAC 
- -t 1.068158241 -s 8 -d -1 -p ARP -e 86 -c 2 -a 0 -i 0 -k MAC
h -t 1.068158241 -s 8 -d -1 -p ARP -e 86 -c 2 -a 0 -i 0 -k MAC
+ -t 1.068444690 -s 6 -d -1 -p DSR -e 120 -c 2 -a 0 -i 9 -k RTR 
- -t 1.068444690 -s 6 -d -1 -p DSR -e 120 -c 2 -a 0 -i 9 -k RTR
h -t 1.068444690 -s 6 -d -1 -p DSR -e 120 -c 2 -a 0 -i 9 -k RTR
+ -t 1.068469738 -s 3 -d -1 -p DSR -e 92 -c 2 -a 0 -i 9 -k RTR 
- -t 1.068469738 -s 3 -d -1 -p DSR -e 92 -c 2 -a 0 -i 9 -k RTR
h -t 1.068469738 -s 3 -d -1 -p DSR -e 92 -c 2 -a 0 -i 9 -k RTR
r -t 1.068846924 -s 15 -d -1 -p ARP -e 28 -c 2 -a 0 -i 0 -k MAC
+ -t 1.068856924 -s 15 -d -1 -p ACK -e 38 -c 2 -a 0 -i 0 -k MAC 
- -t 1.068856924 -s 15 -d -1 -p ACK -e 38 -c 2 -a 0 -i 0 -k MAC
h -t 1.068856924 -s 15 -d -1 -p ACK -e 38 -c 2 -a 0 -i 0 -k MAC
r -t 1.069161607 -s 8 -d -1 -p ACK -e 38 -c 2 -a 0 -i 0 -k MAC
+ -t 1.069301124 -s 6 -d -1 -p DSR -e 178 -c 2 -a 0 -i 9 -k MAC 
- -t 1.069301124 -s 6 -d -1 -p DSR -e 178 -c 2 -a 0 -i 9 -k MAC
h -t 1.069301124 -s 6 -d -1 -p DSR -e 178 -c 2 -a 0 -i 9 -k MAC
r -t 1.070725605 -s 15 -d -1 -p DSR -e 120 -c 2 -a 0 -i 9 -k MAC
r -t 1.070725648 -s 7 -d -1 -p DSR -e 120 -c 2 -a 0 -i 9 -k MAC
r -t 1.070725687 -s 5 -d -1 -p DSR -e 120 -c 2 -a 0 -i 9 -k MAC
r -t 1.070725750 -s 4 -d -1 -p DSR -e 120 -c 2 -a 0 -i 9 -k MAC
+ -t 1.070875750 -s 4 -d -1 -p DSR -e 150 -c 2 -a 0 -i 9 -k MAC 
- -t 1.070875750 -s 4 -d -1 -p DSR -e 150 -c 2 -a 0 -i 9 -k MAC
h -t 1.070875750 -s 4 -d -1 -p DSR -e 150 -c 2 -a 0 -i 9 -k MAC
+ -t 1.071452431 -s 15 -d 5 -p DSR -e 68 -c 2 -a 0 -i 12 -k RTR 
- -t 1.071452431 -s 15 -d 5 -p DSR -e 68 -c 2 -a 0 -i 12 -k RTR
h -t 1.071452431 -s 15 -d 5 -p DSR -e 68 -c 2 -a 0 -i 12 -k RTR
+ -t 1.071912610 -s 15 -d 12 -p DSR -e 52 -c 2 -a 0 -i 11 -k RTR 
- -t 1.071912610 -s 15 -d 12 -p DSR -e 52 -c 2 -a 0 -i 11 -k RTR
h -t 1.071912610 -s 15 -d 12 -p DSR -e 52 -c 2 -a 0 -i 11 -k RTR
r -t 1.072076067 -s 5 -d -1 -p DSR -e 92 -c 2 -a 0 -i 9 -k MAC
r -t 1.072076129 -s 3 -d -1 -p DSR -e 92 -c 2 -a 0 -i 9 -k MAC
r -t 1.072076367 -s 1 -d -1 -p DSR -e 92 -c 2 -a 0 -i 9 -k MAC
r -t 1.072076376 -s 6 -d -1 -p DSR -e 92 -c 2 -a 0 -i 9 -k MAC
r -t 1.072076391 -s 7 -d -1 -p DSR -e 92 -c 2 -a 0 -i 9 -k MAC
r -t 1.072076467 -s 2 -d -1 -p DSR -e 92 -c 2 -a 0 -i 9 -k MAC
r -t 1.072076561 -s 8 -d -1 -p DSR -e 92 -c 2 -a 0 -i 9 -k MAC
+ -t 1.072406467 -s 2 -d -1 -p DSR -e 106 -c 2 -a 0 -i 7 -k MAC 
- -t 1.072406467 -s 2 -d -1 -p DSR -e 106 -c 2 -a 0 -i 7 -k MAC
h -t 1.072406467 -s 2 -d -1 -p DSR -e 106 -c 2 -a 0 -i 7 -k MAC
r -t 1.073254811 -s 3 -d -1 -p DSR -e 48 -c 2 -a 0 -i 7 -k MAC
r -t 1.073254864 -s 1 -d -1 -p DSR -e 48 -c 2 -a 0 -i 7 -k MAC
r -t 1.073254904 -s 0 -d -1 -p DSR -e 48 -c 2 -a 0 -i 7 -k MAC
r -t 1.073255183 -s 4 -d -1 -p DSR -e 48 -c 2 -a 0 -i 7 -k MAC
r -t 1.073255215 -s 11 -d -1 -p DSR -e 48 -c 2 -a 0 -i 7 -k MAC
r -t 1.073255226 -s 5 -d -1 -p DSR -e 48 -c 2 -a 0 -i 7 -k MAC
r -t 1.073255257 -s 10 -d -1 -p DSR -e 48 -c 2 -a 0 -i 7 -k MAC
+ -t 1.073345215 -s 11 -d -1 -p DSR -e 106 -c 2 -a 0 -i 7 -k MAC 
- -t 1.073345215 -s 11 -d -1 -p DSR -e 106 -c 2 -a 0 -i 7 -k MAC
h -t 1.073345215 -s 11 -d -1 -p DSR -e 106 -c 2 -a 0 -i 7 -k MAC
r -t 1.074193510 -s 10 -d -1 -p DSR -e 48 -c 2 -a 0 -i 7 -k MAC
r -t 1.074193533 -s 0 -d -1 -p DSR -e 48 -c 2 -a 0 -i 7 -k MAC
r -t 1.074193835 -s 14 -d -1 -p DSR -e 48 -c 2 -a 0 -i 7 -k MAC
r -t 1.074193856 -s 9 -d -1 -p DSR -e 48 -c 2 -a 0 -i 7 -k MAC
r -t 1.074193890 -s 1 -d -1 -p DSR -e 48 -c 2 -a 0 -i 7 -k MAC
r -t 1.074193963 -s 2 -d -1 -p DSR -e 48 -c 2 -a 0 -i 7 -k MAC
+ -t 1.074383890 -s 1 -d -1 -p DSR -e 126 -c 2 -a 0 -i 9 -k MAC 
- -t 1.074383890 -s 1 -d -1 -p DSR -e 126 -c 2 -a 0 -i 9 -k MAC
h -t 1.074383890 -s 1 -d -1 -p DSR -e 126 -c 2 -a 0 -i 9 -k MAC
+ -t 1.074909441 -s 14 -d -1 -p DSR -e 68 -c 2 -a 0 -i 7 -k RTR 
- -t 1.074909441 -s 14 -d -1 -p DSR -e 68 -c 2 -a 0 -i 7 -k RTR
h -t 1.074909441 -s 14 -d -1 -p DSR -e 68 -c 2 -a 0 -i 7 -k RTR
+ -t 1.075119335 -s 4 -d -1 -p DSR -e 68 -c 2 -a 0 -i 7 -k RTR 
- -t 1.075119335 -s 4 -d -1 -p DSR -e 68 -c 2 -a 0 -i 7 -k RTR
h -t 1.075119335 -s 4 -d -1 -p DSR -e 68 -c 2 -a 0 -i 7 -k RTR
r -t 1.075392288 -s 2 -d -1 -p DSR -e 68 -c 2 -a 0 -i 9 -k MAC
r -t 1.075392305 -s 3 -d -1 -p DSR -e 68 -c 2 -a 0 -i 9 -k MAC
r -t 1.075392367 -s 9 -d -1 -p DSR -e 68 -c 2 -a 0 -i 9 -k MAC
r -t 1.075392377 -s 0 -d -1 -p DSR -e 68 -c 2 -a 0 -i 9 -k MAC
r -t 1.075392378 -s 5 -d -1 -p DSR -e 68 -c 2 -a 0 -i 9 -k MAC
r -t 1.075392420 -s 8 -d -1 -p DSR -e 68 -c 2 -a 0 -i 9 -k MAC
r -t 1.075392452 -s 10 -d -1 -p DSR -e 68 -c 2 -a 0 -i 9 -k MAC
r -t 1.075392507 -s 4 -d -1 -p DSR -e 68 -c 2 -a 0 -i 9 -k MAC
r -t 1.075392565 -s 11 -d -1 -p DSR -e 68 -c 2 -a 0 -i 9 -k MAC
r -t 1.075392581 -s 7 -d -1 -p DSR -e 68 -c 2 -a 0 -i 9 -k MAC
+ -t 1.075506095 -s 15 -d 7 -p DSR -e 60 -c 2 -a 0 -i 13 -k RTR 
- -t 1.075506095 -s 15 -d 7 -p DSR -e 60 -c 2 -a 0 -i 13 -k RTR
h -t 1.075506095 -s 15 -d 7 -p DSR -e 60 -c 2 -a 0 -i 13 -k RTR
+ -t 1.075642305 -s 3 -d -1 -p DSR -e 150 -c 2 -a 0 -i 9 -k MAC 
- -t 1.075642305 -s 3 -d -1 -p DSR -e 150 -c 2 -a 0 -i 9 -k MAC
h -t 1.075642305 -s 3 -d -1 -p DSR -e 150 -c 2 -a 0 -i 9 -k MAC
+ -t 1.076367137 -s 5 -d -1 -p DSR -e 68 -c 2 -a 0 -i 7 -k RTR 
- -t 1.076367137 -s 5 -d -1 -p DSR -e 68 -c 2 -a 0 -i 7 -k RTR
h -t 1.076367137 -s 5 -d -1 -p DSR -e 68 -c 2 -a 0 -i 7 -k RTR
+ -t 1.076392051 -s 15 -d 6 -p DSR -e 76 -c 2 -a 0 -i 16 -k RTR 
- -t 1.076392051 -s 15 -d 6 -p DSR -e 76 -c 2 -a 0 -i 16 -k RTR
h -t 1.076392051 -s 15 -d 6 -p DSR -e 76 -c 2 -a 0 -i 16 -k RTR
r -t 1.076842650 -s 2 -d -1 -p DSR -e 92 -c 2 -a 0 -i 9 -k MAC
r -t 1.076842685 -s 4 -d -1 -p DSR -e 92 -c 2 -a 0 -i 9 -k MAC
r -t 1.076842721 -s 1 -d -1 -p DSR -e 92 -c 2 -a 0 -i 9 -k MAC
r -t 1.076842812 -s 5 -d -1 -p DSR -e 92 -c 2 -a 0 -i 9 -k MAC
r -t 1.076843038 -s 0 -d -1 -p DSR -e 92 -c 2 -a 0 -i 9 -k MAC
+ -t 1.077091534 -s 10 -d -1 -p DSR -e 68 -c 2 -a 0 -i 7 -k RTR 
- -t 1.077091534 -s 10 -d -1 -p DSR -e 68 -c 2 -a 0 -i 7 -k RTR
h -t 1.077091534 -s 10 -d -1 -p DSR -e 68 -c 2 -a 0 -i 7 -k RTR
+ -t 1.077132812 -s 5 -d -1 -p DSR -e 126 -c 2 -a 0 -i 7 -k MAC 
- -t 1.077132812 -s 5 -d -1 -p DSR -e 126 -c 2 -a 0 -i 7 -k MAC
h -t 1.077132812 -s 5 -d -1 -p DSR -e 126 -c 2 -a 0 -i 7 -k MAC
r -t 1.078141130 -s 4 -d -1 -p DSR -e 68 -c 2 -a 0 -i 7 -k MAC
r -t 1.078141157 -s 7 -d -1 -p DSR -e 68 -c 2 -a 0 -i 7 -k MAC
r -t 1.078141300 -s 1 -d -1 -p DSR -e 68 -c 2 -a 0 -i 7 -k MAC
r -t 1.078141315 -s 8 -d -1 -p DSR -e 68 -c 2 -a 0 -i 7 -k MAC
r -t 1.078141319 -s 3 -d -1 -p DSR -e 68 -c 2 -a 0 -i 7 -k MAC
r -t 1.078141376 -s 6 -d -1 -p DSR -e 68 -c 2 -a 0 -i 7 -k MAC
r -t 1.078141501 -s 15 -d -1 -p DSR -e 68 -c 2 -a 0 -i 7 -k MAC
r -t 1.078141512 -s 9 -d -1 -p DSR -e 68 -c 2 -a 0 -i 7 -k MAC
r -t 1.078141572 -s 2 -d -1 -p DSR -e 68 -c 2 -a 0 -i 7 -k MAC
+ -t 1.078166501 -s 15 -d 5 -p DSR -e 64 -c 2 -a 0 -i 20 -k RTR 
- -t 1.078166501 -s 15 -d 5 -p DSR -e 64 -c 2 -a 0 -i 20 -k RTR
h -t 1.078166501 -s 15 -d 5 -p DSR -e 64 -c 2 -a 0 -i 20 -k RTR
d -t 1.078166501 -s 15 -d 5 -p DSR -e 68 -c 2 -a 0 -i 12 -k IFQ
+ -t 1.078211130 -s 4 -d -1 -p DSR -e 126 -c 2 -a 0 -i 7 -k MAC 
- -t 1.078211130 -s 4 -d -1 -p DSR -e 126 -c 2 -a 0 -i 7 -k MAC
h -t 1.078211130 -s 4 -d -1 -p DSR -e 126 -c 2 -a 0 -i 7 -k MAC
+ -t 1.078354477 -s 9 -d -1 -p DSR -e 68 -c 2 -a 0 -i 7 -k RTR 
- -t 1.078354477 -s 9 -d -1 -p DSR -e 68 -c 2 -a 0 -i 7 -k RTR
h -t 1.078354477 -s 9 -d -1 -p DSR -e 68 -c 2 -a 0 -i 7 -k RTR
+ -t 1.079102512 -s 1 -d -1 -p DSR -e 68 -c 2 -a 0 -i 7 -k RTR 
- -t 1.079102512 -s 1 -d -1 -p DSR -e 68 -c 2 -a 0 -i 7 -k RTR
h -t 1.079102512 -s 1 -d -1 -p DSR -e 68 -c 2 -a 0 -i 7 -k RTR
r -t 1.079219447 -s 5 -d -1 -p DSR -e 68 -c 2 -a 0 -i 7 -k MAC
r -t 1.079219509 -s 3 -d -1 -p DSR -e 68 -c 2 -a 0 -i 7 -k MAC
r -t 1.079219746 -s 1 -d -1 -p DSR -e 68 -c 2 -a 0 -i 7 -k MAC
r -t 1.079219756 -s 6 -d -1 -p DSR -e 68 -c 2 -a 0 -i 7 -k MAC
r -t 1.079219771 -s 7 -d -1 -p DSR -e 68 -c 2 -a 0 -i 7 -k MAC
r -t 1.079219846 -s 2 -d -1 -p DSR -e 68 -c 2 -a 0 -i 7 -k MAC
r -t 1.079219941 -s 8 -d -1 -p DSR -e 68 -c 2 -a 0 -i 7 -k MAC
+ -t 1.079283325 -s 6 -d 4 -p DSR -e 60 -c 2 -a 0 -i 21 -k RTR 
- -t 1.079283325 -s 6 -d 4 -p DSR -e 60 -c 2 -a 0 -i 21 -k RTR
h -t 1.079283325 -s 6 -d 4 -p DSR -e 60 -c 2 -a 0 -i 21 -k RTR
+ -t 1.079618325 -s 6 -d -1 -p ARP -e 86 -c 2 -a 0 -i 0 -k MAC 
- -t 1.079618325 -s 6 -d -1 -p ARP -e 86 -c 2 -a 0 -i 0 -k MAC
h -t 1.079618325 -s 6 -d -1 -p ARP -e 86 -c 2 -a 0 -i 0 -k MAC
r -t 1.080306807 -s 15 -d -1 -p ARP -e 28 -c 2 -a 0 -i 0 -k MAC
r -t 1.080306849 -s 7 -d -1 -p ARP -e 28 -c 2 -a 0 -i 0 -k MAC
r -t 1.080306889 -s 5 -d -1 -p ARP -e 28 -c 2 -a 0 -i 0 -k MAC
r -t 1.080306951 -s 4 -d -1 -p ARP -e 28 -c 2 -a 0 -i 0 -k MAC
+ -t 1.080456807 -s 15 -d -1 -p RTS -e 44 -c 2 -a 0 -i 0 -k MAC 
- -t 1.080456807 -s 15 -d -1 -p RTS -e 44 -c 2 -a 0 -i 0 -k MAC
h -t 1.080456807 -s 15 -d -1 -p RTS -e 44 -c 2 -a 0 -i 0 -k MAC
r -t 1.080809490 -s 8 -d -1 -p RTS -e 44 -c 2 -a 0 -i 0 -k MAC
+ -t 1.080819490 -s 8 -d -1 -p CTS -e 38 -c 2 -a 0 -i 0 -k MAC 
- -t 1.080819490 -s 8 -d -1 -p CTS -e 38 -c 2 -a 0 -i 0 -k MAC
h -t 1.080819490 -s 8 -d -1 -p CTS -e 38 -c 2 -a 0 -i 0 -k MAC
r -t 1.081124173 -s 15 -d -1 -p CTS -e 38 -c 2 -a 0 -i 0 -k MAC
+ -t 1.081134173 -s 15 -d 8 -p DSR -e 110 -c 2 -a 0 -i 10 -k MAC 
- -t 1.081134173 -s 15 -d 8 -p DSR -e 110 -c 2 -a 0 -i 10 -k MAC
h -t 1.081134173 -s 15 -d 8 -p DSR -e 110 -c 2 -a 0 -i 10 -k MAC
r -t 1.082014857 -s 8 -d 8 -p DSR -e 52 -c 2 -a 0 -i 10 -k MAC
+ -t 1.082023626 -s 3 -d -1 -p DSR -e 68 -c 2 -a 0 -i 7 -k RTR 
- -t 1.082023626 -s 3 -d -1 -p DSR -e 68 -c 2 -a 0 -i 7 -k RTR
h -t 1.082023626 -s 3 -d -1 -p DSR -e 68 -c 2 -a 0 -i 7 -k RTR
+ -t 1.082024857 -s 8 -d -1 -p ACK -e 38 -c 2 -a 0 -i 0 -k MAC 
- -t 1.082024857 -s 8 -d -1 -p ACK -e 38 -c 2 -a 0 -i 0 -k MAC
h -t 1.082024857 -s 8 -d -1 -p ACK -e 38 -c 2 -a 0 -i 0 -k MAC
+ -t 1.082039857 -s 8 -d 14 -p DSR -e 52 -c 2 -a 0 -i 10 -k RTR 
- -t 1.082039857 -s 8 -d 14 -p DSR -e 52 -c 2 -a 0 -i 10 -k RTR
h -t 1.082039857 -s 8 -d 14 -p DSR -e 52 -c 2 -a 0 -i 10 -k RTR
r -t 1.082329540 -s 15 -d -1 -p ACK -e 38 -c 2 -a 0 -i 0 -k MAC
+ -t 1.082469097 -s 4 -d -1 -p RTS -e 44 -c 2 -a 0 -i 0 -k MAC 
- -t 1.082469097 -s 4 -d -1 -p RTS -e 44 -c 2 -a 0 -i 0 -k MAC
h -t 1.082469097 -s 4 -d -1 -p RTS -e 44 -c 2 -a 0 -i 0 -k MAC
r -t 1.082821723 -s 6 -d -1 -p RTS -e 44 -c 2 -a 0 -i 0 -k MAC
+ -t 1.082831723 -s 6 -d -1 -p CTS -e 38 -c 2 -a 0 -i 0 -k MAC 
- -t 1.082831723 -s 6 -d -1 -p CTS -e 38 -c 2 -a 0 -i 0 -k MAC
h -t 1.082831723 -s 6 -d -1 -p CTS -e 38 -c 2 -a 0 -i 0 -k MAC
r -t 1.083136349 -s 4 -d -1 -p CTS -e 38 -c 2 -a 0 -i 0 -k MAC
+ -t 1.083146349 -s 4 -d -1 -p ARP -e 86 -c 2 -a 0 -i 0 -k MAC 
- -t 1.083146349 -s 4 -d -1 -p ARP -e 86 -c 2 -a 0 -i 0 -k MAC
h -t 1.083146349 -s 4 -d -1 -p ARP -e 86 -c 2 -a 0 -i 0 -k MAC
r -t 1.083834975 -s 6 -d -1 -p ARP -e 28 -c 2 -a 0 -i 0 -k MAC
+ -t 1.083844975 -s 6 -d -1 -p ACK -e 38 -c 2 -a 0 -i 0 -k MAC 
- -t 1.083844975 -s 6 -d -1 -p ACK -e 38 -c 2 -a 0 -i 0 -k MAC
h -t 1.083844975 -s 6 -d -1 -p ACK -e 38 -c 2 -a 0 -i 0 -k MAC
+ -t 1.084039540 -s 8 -d -1 -p DSR -e 92 -c 2 -a 0 -i 7 -k RTR 
- -t 1.084039540 -s 8 -d -1 -p DSR -e 92 -c 2 -a 0 -i 7 -k RTR
h -t 1.084039540 -s 8 -d -1 -p DSR -e 92 -c 2 -a 0 -i 7 -k RTR
r -t 1.084149601 -s 4 -d -1 -p ACK -e 38 -c 2 -a 0 -i 0 -k MAC
+ -t 1.084478975 -s 6 -d -1 -p RTS -e 44 -c 2 -a 0 -i 0 -k MAC 
- -t 1.084478975 -s 6 -d -1 -p RTS -e 44 -c 2 -a 0 -i 0 -k MAC
h -t 1.084478975 -s 6 -d -1 -p RTS -e 44 -c 2 -a 0 -i 0 -k MAC
r -t 1.084831601 -s 4 -d -1 -p RTS -e 44 -c 2 -a 0 -i 0 -k MAC
+ -t 1.084841601 -s 4 -d -1 -p CTS -e 38 -c 2 -a 0 -i 0 -k MAC 
- -t 1.084841601 -s 4 -d -1 -p CTS -e 38 -c 2 -a 0 -i 0 -k MAC
h -t 1.084841601 -s 4 -d -1 -p CTS -e 38 -c 2 -a 0 -i 0 -k MAC
r -t 1.085146227 -s 6 -d -1 -p CTS -e 38 -c 2 -a 0 -i 0 -k MAC
+ -t 1.085156227 -s 6 -d 4 -p DSR -e 118 -c 2 -a 0 -i 21 -k MAC 
- -t 1.085156227 -s 6 -d 4 -p DSR -e 118 -c 2 -a 0 -i 21 -k MAC
h -t 1.085156227 -s 6 -d 4 -p DSR -e 118 -c 2 -a 0 -i 21 -k MAC
r -t 1.086100853 -s 4 -d 4 -p DSR -e 60 -c 2 -a 0 -i 21 -k MAC
+ -t 1.086110853 -s 4 -d -1 -p ACK -e 38 -c 2 -a 0 -i 0 -k MAC 
- -t 1.086110853 -s 4 -d -1 -p ACK -e 38 -c 2 -a 0 -i 0 -k MAC
h -t 1.086110853 -s 4 -d -1 -p ACK -e 38 -c 2 -a 0 -i 0 -k MAC
+ -t 1.086125853 -s 4 -d 2 -p DSR -e 60 -c 2 -a 0 -i 21 -k RTR 
- -t 1.086125853 -s 4 -d 2 -p DSR -e 60 -c 2 -a 0 -i 21 -k RTR
h -t 1.086125853 -s 4 -d 2 -p DSR -e 60 -c 2 -a 0 -i 21 -k RTR
+ -t 1.086360978 -s 7 -d -1 -p DSR -e 92 -c 2 -a 0 -i 7 -k RTR 
- -t 1.086360978 -s 7 -d -1 -p DSR -e 92 -c 2 -a 0 -i 7 -k RTR
h -t 1.086360978 -s 7 -d -1 -p DSR -e 92 -c 2 -a 0 -i 7 -k RTR
r -t 1.086415479 -s 6 -d -1 -p ACK -e 38 -c 2 -a 0 -i 0 -k MAC
+ -t 1.086585495 -s 7 -d -1 -p DSR -e 150 -c 2 -a 0 -i 7 -k MAC 
- -t 1.086585495 -s 7 -d -1 -p DSR -e 150 -c 2 -a 0 -i 7 -k MAC
h -t 1.086585495 -s 7 -d -1 -p DSR -e 150 -c 2 -a 0 -i 7 -k MAC
+ -t 1.087363840 -s 6 -d 5 -p DSR -e 60 -c 2 -a 0 -i 19 -k RTR 
- -t 1.087363840 -s 6 -d 5 -p DSR -e 60 -c 2 -a 0 -i 19 -k RTR
h -t 1.087363840 -s 6 -d 5 -p DSR -e 60 -c 2 -a 0 -i 19 -k RTR
r -t 1.087785839 -s 5 -d -1 -p DSR -e 92 -c 2 -a 0 -i 7 -k MAC
r -t 1.087785858 -s 8 -d -1 -p DSR -e 92 -c 2 -a 0 -i 7 -k MAC
r -t 1.087785884 -s 15 -d -1 -p DSR -e 92 -c 2 -a 0 -i 7 -k MAC
r -t 1.087786019 -s 6 -d -1 -p DSR -e 92 -c 2 -a 0 -i 7 -k MAC
r -t 1.087786120 -s 12 -d -1 -p DSR -e 92 -c 2 -a 0 -i 7 -k MAC
r -t 1.087786136 -s 4 -d -1 -p DSR -e 92 -c 2 -a 0 -i 7 -k MAC
r -t 1.087786150 -s 9 -d -1 -p DSR -e 92 -c 2 -a 0 -i 7 -k MAC
r -t 1.087786185 -s 1 -d -1 -p DSR -e 92 -c 2 -a 0 -i 7 -k MAC
+ -t 1.087856019 -s 6 -d -1 -p ARP -e 86 -c 2 -a 0 -i 0 -k MAC 
- -t 1.087856019 -s 6 -d -1 -p ARP -e 86 -c 2 -a 0 -i 0 -k MAC
h -t 1.087856019 -s 6 -d -1 -p ARP -e 86 -c 2 -a 0 -i 0 -k MAC
+ -t 1.087856185 -s 1 -d -1 -p DSR -e 126 -c 2 -a 0 -i 7 -k MAC 
- -t 1.087856185 -s 1 -d -1 -p DSR -e 126 -c 2 -a 0 -i 7 -k MAC
h -t 1.087856185 -s 1 -d -1 -p DSR -e 126 -c 2 -a 0 -i 7 -k MAC
d -t 1.087856673 -s 5 -d -1 -p ARP -e 86 -c 2 -a 0 -i 0 -k MAC
d -t 1.087856802 -s 4 -d -1 -p ARP -e 86 -c 2 -a 0 -i 0 -k MAC
d -t 1.087856876 -s 7 -d -1 -p ARP -e 86 -c 2 -a 0 -i 0 -k MAC
r -t 1.088544500 -s 15 -d -1 -p ARP -e 28 -c 2 -a 0 -i 0 -k MAC