s 0.030050775 _0_ RTR  --- 0 message 32 [0 0 0 0] ------- [0:255 -1:255 32 0] 
s 0.030285775 _0_ MAC  --- 0 message 90 [0 ffffffff 0 800] ------- [0:255 -1:255 32 0] 
r 0.031006487 _1_ MAC  --- 0 message 32 [0 ffffffff 0 800] ------- [0:255 -1:255 32 0] 
r 0.031006536 _4_ MAC  --- 0 message 32 [0 ffffffff 0 800] ------- [0:255 -1:255 32 0] 
r 0.031006601 _3_ MAC  --- 0 message 32 [0 ffffffff 0 800] ------- [0:255 -1:255 32 0] 
r 0.031031487 _1_ RTR  --- 0 message 32 [0 ffffffff 0 800] ------- [0:255 -1:255 32 0] 
r 0.031031536 _4_ RTR  --- 0 message 32 [0 ffffffff 0 800] ------- [0:255 -1:255 32 0] 
r 0.031031601 _3_ RTR  --- 0 message 32 [0 ffffffff 0 800] ------- [0:255 -1:255 32 0] 
s 0.184842620 _1_ RTR  --- 1 message 32 [0 0 0 0] ------- [1:255 -1:255 32 0] 
s 0.185397620 _1_ MAC  --- 1 message 90 [0 ffffffff 1 800] ------- [1:255 -1:255 32 0] 
r 0.186118189 _4_ MAC  --- 1 message 32 [0 ffffffff 1 800] ------- [1:255 -1:255 32 0] 
r 0.186118332 _0_ MAC  --- 1 message 32 [0 ffffffff 1 800] ------- [1:255 -1:255 32 0] 
r 0.186118390 _2_ MAC  --- 1 message 32 [0 ffffffff 1 800] ------- [1:255 -1:255 32 0] 
r 0.186143189 _4_ RTR  --- 1 message 32 [0 ffffffff 1 800] ------- [1:255 -1:255 32 0] 
r 0.186143332 _0_ RTR  --- 1 message 32 [0 ffffffff 1 800] ------- [1:255 -1:255 32 0] 
r 0.186143390 _2_ RTR  --- 1 message 32 [0 ffffffff 1 800] ------- [1:255 -1:255 32 0] 
s 0.477273789 _6_ RTR  --- 2 message 32 [0 0 0 0] ------- [6:255 -1:255 32 0] 
s 0.477568789 _6_ MAC  --- 2 message 90 [0 ffffffff 6 800] ------- [6:255 -1:255 32 0] 
r 0.478289517 _8_ MAC  --- 2 message 32 [0 ffffffff 6 800] ------- [6:255 -1:255 32 0] 
r 0.478289543 _5_ MAC  --- 2 message 32 [0 ffffffff 6 800] ------- [6:255 -1:255 32 0] 
r 0.478289612 _3_ MAC  --- 2 message 32 [0 ffffffff 6 800] ------- [6:255 -1:255 32 0] 
r 0.478314517 _8_ RTR  --- 2 message 32 [0 ffffffff 6 800] ------- [6:255 -1:255 32 0] 
r 0.478314543 _5_ RTR  --- 2 message 32 [0 ffffffff 6 800] ------- [6:255 -1:255 32 0] 
r 0.478314612 _3_ RTR  --- 2 message 32 [0 ffffffff 6 800] ------- [6:255 -1:255 32 0] 
s 0.500000000 _0_ AGT  --- 3 tcp 40 [0 0 0 0] ------- [0:0 7:0 32 0] [0 0] 0 0
r 0.500000000 _0_ RTR  --- 3 tcp 40 [0 0 0 0] ------- [0:0 7:0 32 0] [0 0] 0 0
s 0.500000000 _3_ AGT  --- 4 tcp 40 [0 0 0 0] ------- [3:0 9:0 32 0] [0 0] 0 0
r 0.500000000 _3_ RTR  --- 4 tcp 40 [0 0 0 0] ------- [3:0 9:0 32 0] [0 0] 0 0
s 0.623344604 _8_ RTR  --- 5 message 32 [0 0 0 0] ------- [8:255 -1:255 32 0] 
s 0.623599604 _8_ MAC  --- 5 message 90 [0 ffffffff 8 800] ------- [8:255 -1:255 32 0] 
r 0.624320197 _9_ MAC  --- 5 message 32 [0 ffffffff 8 800] ------- [8:255 -1:255 32 0] 
r 0.624320259 _5_ MAC  --- 5 message 32 [0 ffffffff 8 800] ------- [8:255 -1:255 32 0] 
r 0.624320324 _7_ MAC  --- 5 message 32 [0 ffffffff 8 800] ------- [8:255 -1:255 32 0] 
r 0.624320331 _6_ MAC  --- 5 message 32 [0 ffffffff 8 800] ------- [8:255 -1:255 32 0] 
r 0.624345197 _9_ RTR  --- 5 message 32 [0 ffffffff 8 800] ------- [8:255 -1:255 32 0] 
r 0.624345259 _5_ RTR  --- 5 message 32 [0 ffffffff 8 800] ------- [8:255 -1:255 32 0] 
r 0.624345324 _7_ RTR  --- 5 message 32 [0 ffffffff 8 800] ------- [8:255 -1:255 32 0] 
r 0.624345331 _6_ RTR  --- 5 message 32 [0 ffffffff 8 800] ------- [8:255 -1:255 32 0] 
s 0.634321795 _4_ RTR  --- 6 message 32 [0 0 0 0] ------- [4:255 -1:255 32 0] 
s 0.634756795 _4_ MAC  --- 6 message 90 [0 ffffffff 4 800] ------- [4:255 -1:255 32 0] 
r 0.635477365 _1_ MAC  --- 6 message 32 [0 ffffffff 4 800] ------- [4:255 -1:255 32 0] 
r 0.635477510 _2_ MAC  --- 6 message 32 [0 ffffffff 4 800] ------- [4:255 -1:255 32 0] 
r 0.635477556 _0_ MAC  --- 6 message 32 [0 ffffffff 4 800] ------- [4:255 -1:255 32 0] 
r 0.635477569 _3_ MAC  --- 6 message 32 [0 ffffffff 4 800] ------- [4:255 -1:255 32 0] 
r 0.635477579 _5_ MAC  --- 6 message 32 [0 ffffffff 4 800] ------- [4:255 -1:255 32 0] 
r 0.635502365 _1_ RTR  --- 6 message 32 [0 ffffffff 4 800] ------- [4:255 -1:255 32 0] 
r 0.635502510 _2_ RTR  --- 6 message 32 [0 ffffffff 4 800] ------- [4:255 -1:255 32 0] 
r 0.635502556 _0_ RTR  --- 6 message 32 [0 ffffffff 4 800] ------- [4:255 -1:255 32 0] 
r 0.635502569 _3_ RTR  --- 6 message 32 [0 ffffffff 4 800] ------- [4:255 -1:255 32 0] 
r 0.635502579 _5_ RTR  --- 6 message 32 [0 ffffffff 4 800] ------- [4:255 -1:255 32 0] 
s 0.889120254 _2_ RTR  --- 7 message 32 [0 0 0 0] ------- [2:255 -1:255 32 0] 
s 0.889335254 _2_ MAC  --- 7 message 90 [0 ffffffff 2 800] ------- [2:255 -1:255 32 0] 
r 0.890055870 _5_ MAC  --- 7 message 32 [0 ffffffff 2 800] ------- [2:255 -1:255 32 0] 
r 0.890055968 _4_ MAC  --- 7 message 32 [0 ffffffff 2 800] ------- [2:255 -1:255 32 0] 
r 0.890055992 _7_ MAC  --- 7 message 32 [0 ffffffff 2 800] ------- [2:255 -1:255 32 0] 
r 0.890056024 _1_ MAC  --- 7 message 32 [0 ffffffff 2 800] ------- [2:255 -1:255 32 0] 
r 0.890080870 _5_ RTR  --- 7 message 32 [0 ffffffff 2 800] ------- [2:255 -1:255 32 0] 
r 0.890080968 _4_ RTR  --- 7 message 32 [0 ffffffff 2 800] ------- [2:255 -1:255 32 0] 
r 0.890080992 _7_ RTR  --- 7 message 32 [0 ffffffff 2 800] ------- [2:255 -1:255 32 0] 
r 0.890081024 _1_ RTR  --- 7 message 32 [0 ffffffff 2 800] ------- [2:255 -1:255 32 0] 
s 1.278822271 _7_ RTR  --- 8 message 32 [0 0 0 0] ------- [7:255 -1:255 32 0] 
s 1.278997271 _7_ MAC  --- 8 message 90 [0 ffffffff 7 800] ------- [7:255 -1:255 32 0] 
r 1.279717711 _5_ MAC  --- 8 message 32 [0 ffffffff 7 800] ------- [7:255 -1:255 32 0] 
r 1.279717883 _9_ MAC  --- 8 message 32 [0 ffffffff 7 800] ------- [7:255 -1:255 32 0] 
r 1.279717991 _8_ MAC  --- 8 message 32 [0 ffffffff 7 800] ------- [7:255 -1:255 32 0] 
r 1.279718010 _2_ MAC  --- 8 message 32 [0 ffffffff 7 800] ------- [7:255 -1:255 32 0] 
r 1.279742711 _5_ RTR  --- 8 message 32 [0 ffffffff 7 800] ------- [7:255 -1:255 32 0] 
r 1.279742883 _9_ RTR  --- 8 message 32 [0 ffffffff 7 800] ------- [7:255 -1:255 32 0] 
r 1.279742991 _8_ RTR  --- 8 message 32 [0 ffffffff 7 800] ------- [7:255 -1:255 32 0] 
r 1.279743010 _2_ RTR  --- 8 message 32 [0 ffffffff 7 800] ------- [7:255 -1:255 32 0] 
M 1.50000 0 (502.00, 404.00, 0.00), (650.00, 400.00), 100.00
s 1.607773557 _3_ RTR  --- 9 message 32 [0 0 0 0] ------- [3:255 -1:255 32 0] 
s 1.608428557 _3_ MAC  --- 9 message 90 [0 ffffffff 3 800] ------- [3:255 -1:255 32 0] 
r 1.609149330 _4_ MAC  --- 9 message 32 [0 ffffffff 3 800] ------- [3:255 -1:255 32 0] 
r 1.609149364 _0_ MAC  --- 9 message 32 [0 ffffffff 3 800] ------- [3:255 -1:255 32 0] 
r 1.609149380 _6_ MAC  --- 9 message 32 [0 ffffffff 3 800] ------- [3:255 -1:255 32 0] 
r 1.609174330 _4_ RTR  --- 9 message 32 [0 ffffffff 3 800] ------- [3:255 -1:255 32 0] 
r 1.609174364 _0_ RTR  --- 9 message 32 [0 ffffffff 3 800] ------- [3:255 -1:255 32 0] 
r 1.609174380 _6_ RTR  --- 9 message 32 [0 ffffffff 3 800] ------- [3:255 -1:255 32 0] 
s 1.633060186 _5_ RTR  --- 10 message 32 [0 0 0 0] ------- [5:255 -1:255 32 0] 
s 1.633635186 _5_ MAC  --- 10 message 90 [0 ffffffff 5 800] ------- [5:255 -1:255 32 0] 
r 1.634355626 _7_ MAC  --- 10 message 32 [0 ffffffff 5 800] ------- [5:255 -1:255 32 0] 
r 1.634355802 _2_ MAC  --- 10 message 32 [0 ffffffff 5 800] ------- [5:255 -1:255 32 0] 
r 1.634355842 _8_ MAC  --- 10 message 32 [0 ffffffff 5 800] ------- [5:255 -1:255 32 0] 
r 1.634355940 _6_ MAC  --- 10 message 32 [0 ffffffff 5 800] ------- [5:255 -1:255 32 0] 
r 1.634355970 _4_ MAC  --- 10 message 32 [0 ffffffff 5 800] ------- [5:255 -1:255 32 0] 
r 1.634380626 _7_ RTR  --- 10 message 32 [0 ffffffff 5 800] ------- [5:255 -1:255 32 0] 
r 1.634380802 _2_ RTR  --- 10 message 32 [0 ffffffff 5 800] ------- [5:255 -1:255 32 0] 
r 1.634380842 _8_ RTR  --- 10 message 32 [0 ffffffff 5 800] ------- [5:255 -1:255 32 0] 
r 1.634380940 _6_ RTR  --- 10 message 32 [0 ffffffff 5 800] ------- [5:255 -1:255 32 0] 
r 1.634380970 _4_ RTR  --- 10 message 32 [0 ffffffff 5 800] ------- [5:255 -1:255 32 0] 
s 1.679333313 _9_ RTR  --- 11 message 32 [0 0 0 0] ------- [9:255 -1:255 32 0] 
s 1.679888313 _9_ MAC  --- 11 message 90 [0 ffffffff 9 800] ------- [9:255 -1:255 32 0] 
r 1.680608906 _8_ MAC  --- 11 message 32 [0 ffffffff 9 800] ------- [9:255 -1:255 32 0] 
r 1.680608925 _7_ MAC  --- 11 message 32 [0 ffffffff 9 800] ------- [9:255 -1:255 32 0] 
r 1.680633906 _8_ RTR  --- 11 message 32 [0 ffffffff 9 800] ------- [9:255 -1:255 32 0] 
r 1.680633925 _7_ RTR  --- 11 message 32 [0 ffffffff 9 800] ------- [9:255 -1:255 32 0] 
s 3.500000000 _0_ AGT  --- 12 tcp 40 [0 0 0 0] ------- [0:0 7:0 32 0] [0 0] 0 0
r 3.500000000 _0_ RTR  --- 12 tcp 40 [0 0 0 0] ------- [0:0 7:0 32 0] [0 0] 0 0
s 3.500000000 _3_ AGT  --- 13 tcp 40 [0 0 0 0] ------- [3:0 9:0 32 0] [0 0] 0 0
r 3.500000000 _3_ RTR  --- 13 tcp 40 [0 0 0 0] ------- [3:0 9:0 32 0] [0 0] 0 0
M 5.00000 1 (656.00, 552.00, 0.00), (656.00, 650.00), 150.00
M 6.00000 0 (650.00, 400.00, 0.00), (656.00, 552.00), 85.00
M 6.00000 4 (730.00, 398.00, 0.00), (730.00, 300.00), 100.00
s 9.500000000 _0_ AGT  --- 14 tcp 40 [0 0 0 0] ------- [0:0 7:0 32 0] [0 0] 0 0
r 9.500000000 _0_ RTR  --- 14 tcp 40 [0 0 0 0] ------- [0:0 7:0 32 0] [0 0] 0 0
s 9.500000000 _3_ AGT  --- 15 tcp 40 [0 0 0 0] ------- [3:0 9:0 32 0] [0 0] 0 0
r 9.500000000 _3_ RTR  --- 15 tcp 40 [0 0 0 0] ------- [3:0 9:0 32 0] [0 0] 0 0
M 10.00000 3 (627.00, 190.00, 0.00), (695.00, 191.00), 90.00
M 11.00000 9 (1228.00, 327.00, 0.00), (1085.00, 300.00), 40.00
s 11.447655470 _0_ RTR  --- 16 message 32 [0 0 0 0] ------- [0:255 -1:255 32 0] 
s 11.447890470 _0_ MAC  --- 16 message 90 [0 ffffffff 0 800] ------- [0:255 -1:255 32 0] 
r 11.448610796 _1_ MAC  --- 16 message 32 [0 ffffffff 0 800] ------- [0:255 -1:255 32 0] 
r 11.448611240 _2_ MAC  --- 16 message 32 [0 ffffffff 0 800] ------- [0:255 -1:255 32 0] 
r 11.448635796 _1_ RTR  --- 16 message 32 [0 ffffffff 0 800] ------- [0:255 -1:255 32 0] 
r 11.448636240 _2_ RTR  --- 16 message 32 [0 ffffffff 0 800] ------- [0:255 -1:255 32 0] 
s 12.031307110 _4_ RTR  --- 18 message 32 [0 0 0 0] ------- [4:255 -1:255 32 0] 
s 12.031382110 _4_ MAC  --- 18 message 90 [0 ffffffff 4 800] ------- [4:255 -1:255 32 0] 
r 12.032102492 _3_ MAC  --- 18 message 32 [0 ffffffff 4 800] ------- [4:255 -1:255 32 0] 
r 12.032102757 _6_ MAC  --- 18 message 32 [0 ffffffff 4 800] ------- [4:255 -1:255 32 0] 
r 12.032102930 _5_ MAC  --- 18 message 32 [0 ffffffff 4 800] ------- [4:255 -1:255 32 0] 
r 12.032127492 _3_ RTR  --- 18 message 32 [0 ffffffff 4 800] ------- [4:255 -1:255 32 0] 
r 12.032127757 _6_ RTR  --- 18 message 32 [0 ffffffff 4 800] ------- [4:255 -1:255 32 0] 
r 12.032127930 _5_ RTR  --- 18 message 32 [0 ffffffff 4 800] ------- [4:255 -1:255 32 0] 
s 12.034304771 _3_ RTR  --- 19 message 32 [0 0 0 0] ------- [3:255 -1:255 32 0] 
s 12.034679771 _3_ MAC  --- 19 message 90 [0 ffffffff 3 800] ------- [3:255 -1:255 32 0] 
r 12.035400153 _4_ MAC  --- 19 message 32 [0 ffffffff 3 800] ------- [3:255 -1:255 32 0] 
r 12.035400369 _6_ MAC  --- 19 message 32 [0 ffffffff 3 800] ------- [3:255 -1:255 32 0] 
r 12.035425153 _4_ RTR  --- 19 message 32 [0 ffffffff 3 800] ------- [3:255 -1:255 32 0] 
r 12.035425369 _6_ RTR  --- 19 message 32 [0 ffffffff 3 800] ------- [3:255 -1:255 32 0] 
s 12.188210730 _2_ RTR  --- 20 message 32 [0 0 0 0] ------- [2:255 -1:255 32 0] 
s 12.188765730 _2_ MAC  --- 20 message 90 [0 ffffffff 2 800] ------- [2:255 -1:255 32 0] 
r 12.189486346 _5_ MAC  --- 20 message 32 [0 ffffffff 2 800] ------- [2:255 -1:255 32 0] 
r 12.189486469 _7_ MAC  --- 20 message 32 [0 ffffffff 2 800] ------- [2:255 -1:255 32 0] 
r 12.189486501 _0_ MAC  --- 20 message 32 [0 ffffffff 2 800] ------- [2:255 -1:255 32 0] 
r 12.189511346 _5_ RTR  --- 20 message 32 [0 ffffffff 2 800] ------- [2:255 -1:255 32 0] 
r 12.189511469 _7_ RTR  --- 20 message 32 [0 ffffffff 2 800] ------- [2:255 -1:255 32 0] 
r 12.189511501 _0_ RTR  --- 20 message 32 [0 ffffffff 2 800] ------- [2:255 -1:255 32 0] 
s 12.448648980 _0_ RTR  --- 21 message 32 [0 0 0 0] ------- [0:255 -1:255 32 0] 
s 12.449023980 _0_ MAC  --- 21 message 90 [0 ffffffff 0 800] ------- [0:255 -1:255 32 0] 
r 12.449744306 _1_ MAC  --- 21 message 32 [0 ffffffff 0 800] ------- [0:255 -1:255 32 0] 
r 12.449744750 _2_ MAC  --- 21 message 32 [0 ffffffff 0 800] ------- [0:255 -1:255 32 0] 
r 12.449769306 _1_ RTR  --- 21 message 32 [0 ffffffff 0 800] ------- [0:255 -1:255 32 0] 
r 12.449769750 _2_ RTR  --- 21 message 32 [0 ffffffff 0 800] ------- [0:255 -1:255 32 0] 
s 12.478815851 _8_ RTR  --- 22 message 32 [0 0 0 0] ------- [8:255 -1:255 32 0] 
s 12.479090851 _8_ MAC  --- 22 message 90 [0 ffffffff 8 800] ------- [8:255 -1:255 32 0] 
r 12.479811276 _9_ MAC  --- 22 message 32 [0 ffffffff 8 800] ------- [8:255 -1:255 32 0] 
r 12.479811506 _5_ MAC  --- 22 message 32 [0 ffffffff 8 800] ------- [8:255 -1:255 32 0] 
r 12.479811571 _7_ MAC  --- 22 message 32 [0 ffffffff 8 800] ------- [8:255 -1:255 32 0] 
r 12.479811579 _6_ MAC  --- 22 message 32 [0 ffffffff 8 800] ------- [8:255 -1:255 32 0] 
r 12.479836276 _9_ RTR  --- 22 message 32 [0 ffffffff 8 800] ------- [8:255 -1:255 32 0] 
r 12.479836506 _5_ RTR  --- 22 message 32 [0 ffffffff 8 800] ------- [8:255 -1:255 32 0] 
r 12.479836571 _7_ RTR  --- 22 message 32 [0 ffffffff 8 800] ------- [8:255 -1:255 32 0] 
r 12.479836579 _6_ RTR  --- 22 message 32 [0 ffffffff 8 800] ------- [8:255 -1:255 32 0] 
s 12.486965598 _5_ RTR  --- 23 message 32 [0 0 0 0] ------- [5:255 -1:255 32 0] 
s 12.487120598 _5_ MAC  --- 23 message 90 [0 ffffffff 5 800] ------- [5:255 -1:255 32 0] 
r 12.487841038 _7_ MAC  --- 23 message 32 [0 ffffffff 5 800] ------- [5:255 -1:255 32 0] 
r 12.487841214 _2_ MAC  --- 23 message 32 [0 ffffffff 5 800] ------- [5:255 -1:255 32 0] 
r 12.487841253 _8_ MAC  --- 23 message 32 [0 ffffffff 5 800] ------- [5:255 -1:255 32 0] 
r 12.487841312 _9_ MAC  --- 23 message 32 [0 ffffffff 5 800] ------- [5:255 -1:255 32 0] 
r 12.487841352 _6_ MAC  --- 23 message 32 [0 ffffffff 5 800] ------- [5:255 -1:255 32 0] 
r 12.487841418 _4_ MAC  --- 23 message 32 [0 ffffffff 5 800] ------- [5:255 -1:255 32 0] 
r 12.487866038 _7_ RTR  --- 23 message 32 [0 ffffffff 5 800] ------- [5:255 -1:255 32 0] 
r 12.487866214 _2_ RTR  --- 23 message 32 [0 ffffffff 5 800] ------- [5:255 -1:255 32 0] 
r 12.487866253 _8_ RTR  --- 23 message 32 [0 ffffffff 5 800] ------- [5:255 -1:255 32 0] 
r 12.487866312 _9_ RTR  --- 23 message 32 [0 ffffffff 5 800] ------- [5:255 -1:255 32 0] 
r 12.487866352 _6_ RTR  --- 23 message 32 [0 ffffffff 5 800] ------- [5:255 -1:255 32 0] 
r 12.487866418 _4_ RTR  --- 23 message 32 [0 ffffffff 5 800] ------- [5:255 -1:255 32 0] 
s 12.631625749 _6_ RTR  --- 26 message 32 [0 0 0 0] ------- [6:255 -1:255 32 0] 
s 12.632300749 _6_ MAC  --- 26 message 90 [0 ffffffff 6 800] ------- [6:255 -1:255 32 0] 
s 12.632489199 _9_ RTR  --- 24 message 32 [0 0 0 0] ------- [9:255 -1:255 32 0] 
r 12.633021347 _3_ MAC  --- 26 message 32 [0 ffffffff 6 800] ------- [6:255 -1:255 32 0] 
r 12.633021395 _4_ MAC  --- 26 message 32 [0 ffffffff 6 800] ------- [6:255 -1:255 32 0] 
r 12.633021477 _8_ MAC  --- 26 message 32 [0 ffffffff 6 800] ------- [6:255 -1:255 32 0] 
r 12.633021503 _5_ MAC  --- 26 message 32 [0 ffffffff 6 800] ------- [6:255 -1:255 32 0] 
r 12.633046347 _3_ RTR  --- 26 message 32 [0 ffffffff 6 800] ------- [6:255 -1:255 32 0] 
r 12.633046395 _4_ RTR  --- 26 message 32 [0 ffffffff 6 800] ------- [6:255 -1:255 32 0] 
r 12.633046477 _8_ RTR  --- 26 message 32 [0 ffffffff 6 800] ------- [6:255 -1:255 32 0] 
r 12.633046503 _5_ RTR  --- 26 message 32 [0 ffffffff 6 800] ------- [6:255 -1:255 32 0] 
s 12.633373800 _7_ RTR  --- 25 message 32 [0 0 0 0] ------- [7:255 -1:255 32 0] 
s 12.633555834 _9_ MAC  --- 24 message 90 [0 ffffffff 9 800] ------- [9:255 -1:255 32 0] 
r 12.634276242 _8_ MAC  --- 24 message 32 [0 ffffffff 9 800] ------- [9:255 -1:255 32 0] 
r 12.634276325 _7_ MAC  --- 24 message 32 [0 ffffffff 9 800] ------- [9:255 -1:255 32 0] 
r 12.634276530 _5_ MAC  --- 24 message 32 [0 ffffffff 9 800] ------- [9:255 -1:255 32 0] 
r 12.634301242 _8_ RTR  --- 24 message 32 [0 ffffffff 9 800] ------- [9:255 -1:255 32 0] 
r 12.634301325 _7_ RTR  --- 24 message 32 [0 ffffffff 9 800] ------- [9:255 -1:255 32 0] 
r 12.634301530 _5_ RTR  --- 24 message 32 [0 ffffffff 9 800] ------- [9:255 -1:255 32 0] 
s 12.634806325 _7_ MAC  --- 25 message 90 [0 ffffffff 7 800] ------- [7:255 -1:255 32 0] 
r 12.635526765 _5_ MAC  --- 25 message 32 [0 ffffffff 7 800] ------- [7:255 -1:255 32 0] 
r 12.635526817 _9_ MAC  --- 25 message 32 [0 ffffffff 7 800] ------- [7:255 -1:255 32 0] 
r 12.635527045 _8_ MAC  --- 25 message 32 [0 ffffffff 7 800] ------- [7:255 -1:255 32 0] 
r 12.635527064 _2_ MAC  --- 25 message 32 [0 ffffffff 7 800] ------- [7:255 -1:255 32 0] 
r 12.635551765 _5_ RTR  --- 25 message 32 [0 ffffffff 7 800] ------- [7:255 -1:255 32 0] 
r 12.635551817 _9_ RTR  --- 25 message 32 [0 ffffffff 7 800] ------- [7:255 -1:255 32 0] 
r 12.635552045 _8_ RTR  --- 25 message 32 [0 ffffffff 7 800] ------- [7:255 -1:255 32 0] 
r 12.635552064 _2_ RTR  --- 25 message 32 [0 ffffffff 7 800] ------- [7:255 -1:255 32 0] 
s 12.641086451 _1_ RTR  --- 27 message 32 [0 0 0 0] ------- [1:255 -1:255 32 0] 
s 12.641701451 _1_ MAC  --- 27 message 90 [0 ffffffff 1 800] ------- [1:255 -1:255 32 0] 
r 12.642421777 _0_ MAC  --- 27 message 32 [0 ffffffff 1 800] ------- [1:255 -1:255 32 0] 
r 12.642446777 _0_ RTR  --- 27 message 32 [0 ffffffff 1 800] ------- [1:255 -1:255 32 0] 
s 12.691771400 _4_ RTR  --- 28 message 56 [0 0 0 0] ------- [4:255 -1:255 32 0] 
s 12.692186400 _4_ MAC  --- 28 message 114 [0 ffffffff 4 800] ------- [4:255 -1:255 32 0] 
r 12.693098782 _3_ MAC  --- 28 message 56 [0 ffffffff 4 800] ------- [4:255 -1:255 32 0] 
r 12.693099047 _6_ MAC  --- 28 message 56 [0 ffffffff 4 800] ------- [4:255 -1:255 32 0] 
r 12.693099220 _5_ MAC  --- 28 message 56 [0 ffffffff 4 800] ------- [4:255 -1:255 32 0] 
r 12.693123782 _3_ RTR  --- 28 message 56 [0 ffffffff 4 800] ------- [4:255 -1:255 32 0] 
r 12.693124047 _6_ RTR  --- 28 message 56 [0 ffffffff 4 800] ------- [4:255 -1:255 32 0] 
r 12.693124220 _5_ RTR  --- 28 message 56 [0 ffffffff 4 800] ------- [4:255 -1:255 32 0] 
s 13.014959849 _1_ RTR  --- 29 message 56 [0 0 0 0] ------- [1:255 -1:255 32 0] 
s 13.015214849 _1_ MAC  --- 29 message 114 [0 ffffffff 1 800] ------- [1:255 -1:255 32 0] 
r 13.016127176 _0_ MAC  --- 29 message 56 [0 ffffffff 1 800] ------- [1:255 -1:255 32 0] 
r 13.016152176 _0_ RTR  --- 29 message 56 [0 ffffffff 1 800] ------- [1:255 -1:255 32 0] 
s 13.034684075 _3_ RTR  --- 31 message 44 [0 0 0 0] ------- [3:255 -1:255 32 0] 
s 13.034919075 _3_ MAC  --- 31 message 102 [0 ffffffff 3 800] ------- [3:255 -1:255 32 0] 
r 13.035735456 _4_ MAC  --- 31 message 44 [0 ffffffff 3 800] ------- [3:255 -1:255 32 0] 
r 13.035735673 _6_ MAC  --- 31 message 44 [0 ffffffff 3 800] ------- [3:255 -1:255 32 0] 
r 13.035760456 _4_ RTR  --- 31 message 44 [0 ffffffff 3 800] ------- [3:255 -1:255 32 0] 
r 13.035760673 _6_ RTR  --- 31 message 44 [0 ffffffff 3 800] ------- [3:255 -1:255 32 0] 
s 13.036101742 _6_ RTR  --- 30 message 44 [0 0 0 0] ------- [6:255 -1:255 32 0] 
s 13.036176742 _6_ MAC  --- 30 message 102 [0 ffffffff 6 800] ------- [6:255 -1:255 32 0] 
r 13.036993339 _3_ MAC  --- 30 message 44 [0 ffffffff 6 800] ------- [6:255 -1:255 32 0] 
r 13.036993388 _4_ MAC  --- 30 message 44 [0 ffffffff 6 800] ------- [6:255 -1:255 32 0] 
r 13.036993469 _8_ MAC  --- 30 message 44 [0 ffffffff 6 800] ------- [6:255 -1:255 32 0] 
r 13.036993495 _5_ MAC  --- 30 message 44 [0 ffffffff 6 800] ------- [6:255 -1:255 32 0] 
r 13.037018339 _3_ RTR  --- 30 message 44 [0 ffffffff 6 800] ------- [6:255 -1:255 32 0] 
r 13.037018388 _4_ RTR  --- 30 message 44 [0 ffffffff 6 800] ------- [6:255 -1:255 32 0] 
r 13.037018469 _8_ RTR  --- 30 message 44 [0 ffffffff 6 800] ------- [6:255 -1:255 32 0] 
r 13.037018495 _5_ RTR  --- 30 message 44 [0 ffffffff 6 800] ------- [6:255 -1:255 32 0] 
s 13.194943346 _2_ RTR  --- 32 message 44 [0 0 0 0] ------- [2:255 -1:255 32 0] 
s 13.195338346 _2_ MAC  --- 32 message 102 [0 ffffffff 2 800] ------- [2:255 -1:255 32 0] 
r 13.196154962 _5_ MAC  --- 32 message 44 [0 ffffffff 2 800] ------- [2:255 -1:255 32 0] 
r 13.196155085 _7_ MAC  --- 32 message 44 [0 ffffffff 2 800] ------- [2:255 -1:255 32 0] 
r 13.196155117 _0_ MAC  --- 32 message 44 [0 ffffffff 2 800] ------- [2:255 -1:255 32 0] 
r 13.196179962 _5_ RTR  --- 32 message 44 [0 ffffffff 2 800] ------- [2:255 -1:255 32 0] 
r 13.196180085 _7_ RTR  --- 32 message 44 [0 ffffffff 2 800] ------- [2:255 -1:255 32 0] 
r 13.196180117 _0_ RTR  --- 32 message 44 [0 ffffffff 2 800] ------- [2:255 -1:255 32 0] 
s 13.439208327 _0_ RTR  --- 33 message 32 [0 0 0 0] ------- [0:255 -1:255 32 0] 
s 13.439603327 _0_ MAC  --- 33 message 90 [0 ffffffff 0 800] ------- [0:255 -1:255 32 0] 
r 13.440323654 _1_ MAC  --- 33 message 32 [0 ffffffff 0 800] ------- [0:255 -1:255 32 0] 
r 13.440324098 _2_ MAC  --- 33 message 32 [0 ffffffff 0 800] ------- [0:255 -1:255 32 0] 
r 13.440348654 _1_ RTR  --- 33 message 32 [0 ffffffff 0 800] ------- [0:255 -1:255 32 0] 
r 13.440349098 _2_ RTR  --- 33 message 32 [0 ffffffff 0 800] ------- [0:255 -1:255 32 0] 
s 13.483522012 _5_ RTR  --- 35 message 56 [0 0 0 0] ------- [5:255 -1:255 32 0] 
s 13.483697012 _5_ MAC  --- 35 message 114 [0 ffffffff 5 800] ------- [5:255 -1:255 32 0] 
r 13.484609452 _7_ MAC  --- 35 message 56 [0 ffffffff 5 800] ------- [5:255 -1:255 32 0] 
r 13.484609610 _9_ MAC  --- 35 message 56 [0 ffffffff 5 800] ------- [5:255 -1:255 32 0] 
r 13.484609628 _2_ MAC  --- 35 message 56 [0 ffffffff 5 800] ------- [5:255 -1:255 32 0] 
r 13.484609667 _8_ MAC  --- 35 message 56 [0 ffffffff 5 800] ------- [5:255 -1:255 32 0] 
r 13.484609766 _6_ MAC  --- 35 message 56 [0 ffffffff 5 800] ------- [5:255 -1:255 32 0] 
r 13.484609832 _4_ MAC  --- 35 message 56 [0 ffffffff 5 800] ------- [5:255 -1:255 32 0] 
r 13.484634452 _7_ RTR  --- 35 message 56 [0 ffffffff 5 800] ------- [5:255 -1:255 32 0] 
r 13.484634610 _9_ RTR  --- 35 message 56 [0 ffffffff 5 800] ------- [5:255 -1:255 32 0] 
r 13.484634628 _2_ RTR  --- 35 message 56 [0 ffffffff 5 800] ------- [5:255 -1:255 32 0] 
r 13.484634667 _8_ RTR  --- 35 message 56 [0 ffffffff 5 800] ------- [5:255 -1:255 32 0] 
r 13.484634766 _6_ RTR  --- 35 message 56 [0 ffffffff 5 800] ------- [5:255 -1:255 32 0] 
r 13.484634832 _4_ RTR  --- 35 message 56 [0 ffffffff 5 800] ------- [5:255 -1:255 32 0] 
s 13.486210801 _8_ RTR  --- 34 message 32 [0 0 0 0] ------- [8:255 -1:255 32 0] 
s 13.486345801 _8_ MAC  --- 34 message 90 [0 ffffffff 8 800] ------- [8:255 -1:255 32 0] 
r 13.487066129 _9_ MAC  --- 34 message 32 [0 ffffffff 8 800] ------- [8:255 -1:255 32 0] 
r 13.487066456 _5_ MAC  --- 34 message 32 [0 ffffffff 8 800] ------- [8:255 -1:255 32 0] 
r 13.487066521 _7_ MAC  --- 34 message 32 [0 ffffffff 8 800] ------- [8:255 -1:255 32 0] 
r 13.487066528 _6_ MAC  --- 34 message 32 [0 ffffffff 8 800] ------- [8:255 -1:255 32 0] 
r 13.487091129 _9_ RTR  --- 34 message 32 [0 ffffffff 8 800] ------- [8:255 -1:255 32 0] 
r 13.487091456 _5_ RTR  --- 34 message 32 [0 ffffffff 8 800] ------- [8:255 -1:255 32 0] 
r 13.487091521 _7_ RTR  --- 34 message 32 [0 ffffffff 8 800] ------- [8:255 -1:255 32 0] 
r 13.487091528 _6_ RTR  --- 34 message 32 [0 ffffffff 8 800] ------- [8:255 -1:255 32 0] 
s 13.620465099 _8_ RTR  --- 36 message 44 [0 0 0 0] ------- [8:255 -1:255 32 0] 
s 13.620560099 _8_ MAC  --- 36 message 102 [0 ffffffff 8 800] ------- [8:255 -1:255 32 0] 
r 13.621376417 _9_ MAC  --- 36 message 44 [0 ffffffff 8 800] ------- [8:255 -1:255 32 0] 
r 13.621376754 _5_ MAC  --- 36 message 44 [0 ffffffff 8 800] ------- [8:255 -1:255 32 0] 
r 13.621376819 _7_ MAC  --- 36 message 44 [0 ffffffff 8 800] ------- [8:255 -1:255 32 0] 
r 13.621376827 _6_ MAC  --- 36 message 44 [0 ffffffff 8 800] ------- [8:255 -1:255 32 0] 
r 13.621401417 _9_ RTR  --- 36 message 44 [0 ffffffff 8 800] ------- [8:255 -1:255 32 0] 
r 13.621401754 _5_ RTR  --- 36 message 44 [0 ffffffff 8 800] ------- [8:255 -1:255 32 0] 
r 13.621401819 _7_ RTR  --- 36 message 44 [0 ffffffff 8 800] ------- [8:255 -1:255 32 0] 
r 13.621401827 _6_ RTR  --- 36 message 44 [0 ffffffff 8 800] ------- [8:255 -1:255 32 0] 
s 13.626486717 _9_ RTR  --- 37 message 32 [0 0 0 0] ------- [9:255 -1:255 32 0] 
s 13.626581717 _9_ MAC  --- 37 message 90 [0 ffffffff 9 800] ------- [9:255 -1:255 32 0] 
r 13.627302035 _8_ MAC  --- 37 message 32 [0 ffffffff 9 800] ------- [9:255 -1:255 32 0] 
r 13.627302173 _7_ MAC  --- 37 message 32 [0 ffffffff 9 800] ------- [9:255 -1:255 32 0] 
r 13.627302300 _5_ MAC  --- 37 message 32 [0 ffffffff 9 800] ------- [9:255 -1:255 32 0] 
r 13.627327035 _8_ RTR  --- 37 message 32 [0 ffffffff 9 800] ------- [9:255 -1:255 32 0] 
r 13.627327173 _7_ RTR  --- 37 message 32 [0 ffffffff 9 800] ------- [9:255 -1:255 32 0] 
r 13.627327300 _5_ RTR  --- 37 message 32 [0 ffffffff 9 800] ------- [9:255 -1:255 32 0] 
s 13.628649372 _7_ RTR  --- 38 message 32 [0 0 0 0] ------- [7:255 -1:255 32 0] 
s 13.629104372 _7_ MAC  --- 38 message 90 [0 ffffffff 7 800] ------- [7:255 -1:255 32 0] 
r 13.629824812 _5_ MAC  --- 38 message 32 [0 ffffffff 7 800] ------- [7:255 -1:255 32 0] 
r 13.629824828 _9_ MAC  --- 38 message 32 [0 ffffffff 7 800] ------- [7:255 -1:255 32 0] 
r 13.629825092 _8_ MAC  --- 38 message 32 [0 ffffffff 7 800] ------- [7:255 -1:255 32 0] 
r 13.629825111 _2_ MAC  --- 38 message 32 [0 ffffffff 7 800] ------- [7:255 -1:255 32 0] 
r 13.629849812 _5_ RTR  --- 38 message 32 [0 ffffffff 7 800] ------- [7:255 -1:255 32 0] 
r 13.629849828 _9_ RTR  --- 38 message 32 [0 ffffffff 7 800] ------- [7:255 -1:255 32 0] 
r 13.629850092 _8_ RTR  --- 38 message 32 [0 ffffffff 7 800] ------- [7:255 -1:255 32 0] 
r 13.629850111 _2_ RTR  --- 38 message 32 [0 ffffffff 7 800] ------- [7:255 -1:255 32 0] 
s 13.699239525 _4_ RTR  --- 39 message 56 [0 0 0 0] ------- [4:255 -1:255 32 0] 
s 13.699794525 _4_ MAC  --- 39 message 114 [0 ffffffff 4 800] ------- [4:255 -1:255 32 0] 
r 13.700706906 _3_ MAC  --- 39 message 56 [0 ffffffff 4 800] ------- [4:255 -1:255 32 0] 
r 13.700707171 _6_ MAC  --- 39 message 56 [0 ffffffff 4 800] ------- [4:255 -1:255 32 0] 
r 13.700707345 _5_ MAC  --- 39 message 56 [0 ffffffff 4 800] ------- [4:255 -1:255 32 0] 
r 13.700731906 _3_ RTR  --- 39 message 56 [0 ffffffff 4 800] ------- [4:255 -1:255 32 0] 
r 13.700732171 _6_ RTR  --- 39 message 56 [0 ffffffff 4 800] ------- [4:255 -1:255 32 0] 
r 13.700732345 _5_ RTR  --- 39 message 56 [0 ffffffff 4 800] ------- [4:255 -1:255 32 0] 
s 13.887958733 _9_ RTR  --- 40 message 44 [0 0 0 0] ------- [9:255 -1:255 32 0] 
s 13.888213733 _9_ MAC  --- 40 message 102 [0 ffffffff 9 800] ------- [9:255 -1:255 32 0] 
r 13.889030032 _8_ MAC  --- 40 message 44 [0 ffffffff 9 800] ------- [9:255 -1:255 32 0] 
r 13.889030185 _7_ MAC  --- 40 message 44 [0 ffffffff 9 800] ------- [9:255 -1:255 32 0] 
r 13.889030287 _5_ MAC  --- 40 message 44 [0 ffffffff 9 800] ------- [9:255 -1:255 32 0] 
r 13.889055032 _8_ RTR  --- 40 message 44 [0 ffffffff 9 800] ------- [9:255 -1:255 32 0] 
r 13.889055185 _7_ RTR  --- 40 message 44 [0 ffffffff 9 800] ------- [9:255 -1:255 32 0] 
r 13.889055287 _5_ RTR  --- 40 message 44 [0 ffffffff 9 800] ------- [9:255 -1:255 32 0] 
s 14.035695798 _6_ RTR  --- 42 message 44 [0 0 0 0] ------- [6:255 -1:255 32 0] 
s 14.035770798 _6_ MAC  --- 42 message 102 [0 ffffffff 6 800] ------- [6:255 -1:255 32 0] 
r 14.036587395 _3_ MAC  --- 42 message 44 [0 ffffffff 6 800] ------- [6:255 -1:255 32 0] 
r 14.036587444 _4_ MAC  --- 42 message 44 [0 ffffffff 6 800] ------- [6:255 -1:255 32 0] 
r 14.036587525 _8_ MAC  --- 42 message 44 [0 ffffffff 6 800] ------- [6:255 -1:255 32 0] 
r 14.036587551 _5_ MAC  --- 42 message 44 [0 ffffffff 6 800] ------- [6:255 -1:255 32 0] 
r 14.036612395 _3_ RTR  --- 42 message 44 [0 ffffffff 6 800] ------- [6:255 -1:255 32 0] 
r 14.036612444 _4_ RTR  --- 42 message 44 [0 ffffffff 6 800] ------- [6:255 -1:255 32 0] 
r 14.036612525 _8_ RTR  --- 42 message 44 [0 ffffffff 6 800] ------- [6:255 -1:255 32 0] 
r 14.036612551 _5_ RTR  --- 42 message 44 [0 ffffffff 6 800] ------- [6:255 -1:255 32 0] 
s 14.050570599 _7_ RTR  --- 43 message 56 [0 0 0 0] ------- [7:255 -1:255 32 0] 
s 14.051205599 _7_ MAC  --- 43 message 114 [0 ffffffff 7 800] ------- [7:255 -1:255 32 0] 
r 14.052118039 _5_ MAC  --- 43 message 56 [0 ffffffff 7 800] ------- [7:255 -1:255 32 0] 
r 14.052118050 _9_ MAC  --- 43 message 56 [0 ffffffff 7 800] ------- [7:255 -1:255 32 0] 
r 14.052118319 _8_ MAC  --- 43 message 56 [0 ffffffff 7 800] ------- [7:255 -1:255 32 0] 
r 14.052118337 _2_ MAC  --- 43 message 56 [0 ffffffff 7 800] ------- [7:255 -1:255 32 0] 
r 14.052143039 _5_ RTR  --- 43 message 56 [0 ffffffff 7 800] ------- [7:255 -1:255 32 0] 
r 14.052143050 _9_ RTR  --- 43 message 56 [0 ffffffff 7 800] ------- [7:255 -1:255 32 0] 
r 14.052143319 _8_ RTR  --- 43 message 56 [0 ffffffff 7 800] ------- [7:255 -1:255 32 0] 
r 14.052143337 _2_ RTR  --- 43 message 56 [0 ffffffff 7 800] ------- [7:255 -1:255 32 0] 
s 14.189543004 _2_ RTR  --- 44 message 56 [0 0 0 0] ------- [2:255 -1:255 32 0] 
s 14.189838004 _2_ MAC  --- 44 message 114 [0 ffffffff 2 800] ------- [2:255 -1:255 32 0] 
r 14.190750620 _5_ MAC  --- 44 message 56 [0 ffffffff 2 800] ------- [2:255 -1:255 32 0] 
r 14.190750742 _7_ MAC  --- 44 message 56 [0 ffffffff 2 800] ------- [2:255 -1:255 32 0] 
r 14.190750774 _0_ MAC  --- 44 message 56 [0 ffffffff 2 800] ------- [2:255 -1:255 32 0] 
r 14.190775620 _5_ RTR  --- 44 message 56 [0 ffffffff 2 800] ------- [2:255 -1:255 32 0] 
r 14.190775742 _7_ RTR  --- 44 message 56 [0 ffffffff 2 800] ------- [2:255 -1:255 32 0] 
r 14.190775774 _0_ RTR  --- 44 message 56 [0 ffffffff 2 800] ------- [2:255 -1:255 32 0] 
s 14.443223016 _0_ RTR  --- 45 message 44 [0 0 0 0] ------- [0:255 -1:255 32 0] 
s 14.443538016 _0_ MAC  --- 45 message 102 [0 ffffffff 0 800] ------- [0:255 -1:255 32 0] 
r 14.444354342 _1_ MAC  --- 45 message 44 [0 ffffffff 0 800] ------- [0:255 -1:255 32 0] 
r 14.444354786 _2_ MAC  --- 45 message 44 [0 ffffffff 0 800] ------- [0:255 -1:255 32 0] 