n -t * -s 0  -x 502 -y 404 -Z 0 -z 20  -v circle -c black
n -t * -s 1  -x 656 -y 552 -Z 0 -z 20  -v circle -c black
n -t * -s 2  -x 887 -y 544 -Z 0 -z 20  -v circle -c black
n -t * -s 3  -x 627 -y 190 -Z 0 -z 20  -v circle -c black
n -t * -s 4  -x 730 -y 398 -Z 0 -z 20  -v circle -c black
n -t * -s 5  -x 964 -y 376 -Z 0 -z 20  -v circle -c black
n -t * -s 6  -x 873 -y 169 -Z 0 -z 20  -v circle -c black
n -t * -s 7  -x 1081 -y 437 -Z 0 -z 20  -v circle -c black
n -t * -s 8  -x 1085 -y 221 -Z 0 -z 20  -v circle -c black
n -t * -s 9  -x 1228 -y 327 -Z 0 -z 20  -v circle -c black
V -t * -v 1.0a5 -a 0
W -t * -x 1328 -y 652
A -t * -n 1 -p 0 -o 0x7fffffff -c 30 -a 1
A -t * -h 1 -m 1073741823 -s 0
n -t 0 -s 0 -S DLABEL -l "SOURCE 1" -L ""
n -t 0 -s 0 -S COLOR -c blue -o blue -i blue -I blue
n -t 0 -s 7 -S DLABEL -l "DESTINATION 1" -L ""
n -t 0 -s 7 -S COLOR -c blue -o blue -i blue -I blue
n -t 0 -s 3 -S DLABEL -l "SOURCE 2" -L ""
n -t 0 -s 3 -S COLOR -c red -o red -i red -I red
n -t 0 -s 9 -S DLABEL -l "DESTINATION 2" -L ""
n -t 0 -s 9 -S COLOR -c red -o red -i red -I red
+ -t 0.030050775 -s 0 -d -1 -p message -e 32 -c 2 -a 0 -i 0 -k RTR 
- -t 0.030050775 -s 0 -d -1 -p message -e 32 -c 2 -a 0 -i 0 -k RTR
h -t 0.030050775 -s 0 -d -1 -p message -e 32 -c 2 -a 0 -i 0 -k RTR
+ -t 0.030285775 -s 0 -d -1 -p message -e 90 -c 2 -a 0 -i 0 -k MAC 
- -t 0.030285775 -s 0 -d -1 -p message -e 90 -c 2 -a 0 -i 0 -k MAC
h -t 0.030285775 -s 0 -d -1 -p message -e 90 -c 2 -a 0 -i 0 -k MAC
r -t 0.031006487 -s 1 -d -1 -p message -e 32 -c 2 -a 0 -i 0 -k MAC
r -t 0.031006536 -s 4 -d -1 -p message -e 32 -c 2 -a 0 -i 0 -k MAC
r -t 0.031006601 -s 3 -d -1 -p message -e 32 -c 2 -a 0 -i 0 -k MAC
r -t 0.031031487 -s 1 -d -1 -p message -e 32 -c 2 -a 0 -i 0 -k RTR
r -t 0.031031536 -s 4 -d -1 -p message -e 32 -c 2 -a 0 -i 0 -k RTR
r -t 0.031031601 -s 3 -d -1 -p message -e 32 -c 2 -a 0 -i 0 -k RTR
+ -t 0.184842620 -s 1 -d -1 -p message -e 32 -c 2 -a 0 -i 1 -k RTR 
- -t 0.184842620 -s 1 -d -1 -p message -e 32 -c 2 -a 0 -i 1 -k RTR
h -t 0.184842620 -s 1 -d -1 -p message -e 32 -c 2 -a 0 -i 1 -k RTR
+ -t 0.185397620 -s 1 -d -1 -p message -e 90 -c 2 -a 0 -i 1 -k MAC 
- -t 0.185397620 -s 1 -d -1 -p message -e 90 -c 2 -a 0 -i 1 -k MAC
h -t 0.185397620 -s 1 -d -1 -p message -e 90 -c 2 -a 0 -i 1 -k MAC
r -t 0.186118189 -s 4 -d -1 -p message -e 32 -c 2 -a 0 -i 1 -k MAC
r -t 0.186118332 -s 0 -d -1 -p message -e 32 -c 2 -a 0 -i 1 -k MAC
r -t 0.186118390 -s 2 -d -1 -p message -e 32 -c 2 -a 0 -i 1 -k MAC
r -t 0.186143189 -s 4 -d -1 -p message -e 32 -c 2 -a 0 -i 1 -k RTR
r -t 0.186143332 -s 0 -d -1 -p message -e 32 -c 2 -a 0 -i 1 -k RTR
r -t 0.186143390 -s 2 -d -1 -p message -e 32 -c 2 -a 0 -i 1 -k RTR
+ -t 0.477273789 -s 6 -d -1 -p message -e 32 -c 2 -a 0 -i 2 -k RTR 
- -t 0.477273789 -s 6 -d -1 -p message -e 32 -c 2 -a 0 -i 2 -k RTR
h -t 0.477273789 -s 6 -d -1 -p message -e 32 -c 2 -a 0 -i 2 -k RTR
+ -t 0.477568789 -s 6 -d -1 -p message -e 90 -c 2 -a 0 -i 2 -k MAC 
- -t 0.477568789 -s 6 -d -1 -p message -e 90 -c 2 -a 0 -i 2 -k MAC
h -t 0.477568789 -s 6 -d -1 -p message -e 90 -c 2 -a 0 -i 2 -k MAC
r -t 0.478289517 -s 8 -d -1 -p message -e 32 -c 2 -a 0 -i 2 -k MAC
r -t 0.478289543 -s 5 -d -1 -p message -e 32 -c 2 -a 0 -i 2 -k MAC
r -t 0.478289612 -s 3 -d -1 -p message -e 32 -c 2 -a 0 -i 2 -k MAC
r -t 0.478314517 -s 8 -d -1 -p message -e 32 -c 2 -a 0 -i 2 -k RTR
r -t 0.478314543 -s 5 -d -1 -p message -e 32 -c 2 -a 0 -i 2 -k RTR
r -t 0.478314612 -s 3 -d -1 -p message -e 32 -c 2 -a 0 -i 2 -k RTR
+ -t 0.500000000 -s 0 -d -1 -p tcp -e 40 -c 2 -a 0 -i 3 -k AGT 
- -t 0.500000000 -s 0 -d -1 -p tcp -e 40 -c 2 -a 0 -i 3 -k AGT
h -t 0.500000000 -s 0 -d -1 -p tcp -e 40 -c 2 -a 0 -i 3 -k AGT
+ -t 0.500000000 -s 3 -d -1 -p tcp -e 40 -c 2 -a 0 -i 4 -k AGT 
- -t 0.500000000 -s 3 -d -1 -p tcp -e 40 -c 2 -a 0 -i 4 -k AGT
h -t 0.500000000 -s 3 -d -1 -p tcp -e 40 -c 2 -a 0 -i 4 -k AGT
+ -t 0.623344604 -s 8 -d -1 -p message -e 32 -c 2 -a 0 -i 5 -k RTR 
- -t 0.623344604 -s 8 -d -1 -p message -e 32 -c 2 -a 0 -i 5 -k RTR
h -t 0.623344604 -s 8 -d -1 -p message -e 32 -c 2 -a 0 -i 5 -k RTR
+ -t 0.623599604 -s 8 -d -1 -p message -e 90 -c 2 -a 0 -i 5 -k MAC 
- -t 0.623599604 -s 8 -d -1 -p message -e 90 -c 2 -a 0 -i 5 -k MAC
h -t 0.623599604 -s 8 -d -1 -p message -e 90 -c 2 -a 0 -i 5 -k MAC
r -t 0.624320197 -s 9 -d -1 -p message -e 32 -c 2 -a 0 -i 5 -k MAC
r -t 0.624320259 -s 5 -d -1 -p message -e 32 -c 2 -a 0 -i 5 -k MAC
r -t 0.624320324 -s 7 -d -1 -p message -e 32 -c 2 -a 0 -i 5 -k MAC
r -t 0.624320331 -s 6 -d -1 -p message -e 32 -c 2 -a 0 -i 5 -k MAC
r -t 0.624345197 -s 9 -d -1 -p message -e 32 -c 2 -a 0 -i 5 -k RTR
r -t 0.624345259 -s 5 -d -1 -p message -e 32 -c 2 -a 0 -i 5 -k RTR
r -t 0.624345324 -s 7 -d -1 -p message -e 32 -c 2 -a 0 -i 5 -k RTR
r -t 0.624345331 -s 6 -d -1 -p message -e 32 -c 2 -a 0 -i 5 -k RTR
+ -t 0.634321795 -s 4 -d -1 -p message -e 32 -c 2 -a 0 -i 6 -k RTR 
- -t 0.634321795 -s 4 -d -1 -p message -e 32 -c 2 -a 0 -i 6 -k RTR
h -t 0.634321795 -s 4 -d -1 -p message -e 32 -c 2 -a 0 -i 6 -k RTR
+ -t 0.634756795 -s 4 -d -1 -p message -e 90 -c 2 -a 0 -i 6 -k MAC 
- -t 0.634756795 -s 4 -d -1 -p message -e 90 -c 2 -a 0 -i 6 -k MAC
h -t 0.634756795 -s 4 -d -1 -p message -e 90 -c 2 -a 0 -i 6 -k MAC
r -t 0.635477365 -s 1 -d -1 -p message -e 32 -c 2 -a 0 -i 6 -k MAC
r -t 0.635477510 -s 2 -d -1 -p message -e 32 -c 2 -a 0 -i 6 -k MAC
r -t 0.635477556 -s 0 -d -1 -p message -e 32 -c 2 -a 0 -i 6 -k MAC
r -t 0.635477569 -s 3 -d -1 -p message -e 32 -c 2 -a 0 -i 6 -k MAC
r -t 0.635477579 -s 5 -d -1 -p message -e 32 -c 2 -a 0 -i 6 -k MAC
r -t 0.635502365 -s 1 -d -1 -p message -e 32 -c 2 -a 0 -i 6 -k RTR
r -t 0.635502510 -s 2 -d -1 -p message -e 32 -c 2 -a 0 -i 6 -k RTR
r -t 0.635502556 -s 0 -d -1 -p message -e 32 -c 2 -a 0 -i 6 -k RTR
r -t 0.635502569 -s 3 -d -1 -p message -e 32 -c 2 -a 0 -i 6 -k RTR
r -t 0.635502579 -s 5 -d -1 -p message -e 32 -c 2 -a 0 -i 6 -k RTR
+ -t 0.889120254 -s 2 -d -1 -p message -e 32 -c 2 -a 0 -i 7 -k RTR 
- -t 0.889120254 -s 2 -d -1 -p message -e 32 -c 2 -a 0 -i 7 -k RTR
h -t 0.889120254 -s 2 -d -1 -p message -e 32 -c 2 -a 0 -i 7 -k RTR
+ -t 0.889335254 -s 2 -d -1 -p message -e 90 -c 2 -a 0 -i 7 -k MAC 
- -t 0.889335254 -s 2 -d -1 -p message -e 90 -c 2 -a 0 -i 7 -k MAC
h -t 0.889335254 -s 2 -d -1 -p message -e 90 -c 2 -a 0 -i 7 -k MAC
r -t 0.890055870 -s 5 -d -1 -p message -e 32 -c 2 -a 0 -i 7 -k MAC
r -t 0.890055968 -s 4 -d -1 -p message -e 32 -c 2 -a 0 -i 7 -k MAC
r -t 0.890055992 -s 7 -d -1 -p message -e 32 -c 2 -a 0 -i 7 -k MAC
r -t 0.890056024 -s 1 -d -1 -p message -e 32 -c 2 -a 0 -i 7 -k MAC
r -t 0.890080870 -s 5 -d -1 -p message -e 32 -c 2 -a 0 -i 7 -k RTR
r -t 0.890080968 -s 4 -d -1 -p message -e 32 -c 2 -a 0 -i 7 -k RTR
r -t 0.890080992 -s 7 -d -1 -p message -e 32 -c 2 -a 0 -i 7 -k RTR
r -t 0.890081024 -s 1 -d -1 -p message -e 32 -c 2 -a 0 -i 7 -k RTR
+ -t 1.278822271 -s 7 -d -1 -p message -e 32 -c 2 -a 0 -i 8 -k RTR 
- -t 1.278822271 -s 7 -d -1 -p message -e 32 -c 2 -a 0 -i 8 -k RTR
h -t 1.278822271 -s 7 -d -1 -p message -e 32 -c 2 -a 0 -i 8 -k RTR
+ -t 1.278997271 -s 7 -d -1 -p message -e 90 -c 2 -a 0 -i 8 -k MAC 
- -t 1.278997271 -s 7 -d -1 -p message -e 90 -c 2 -a 0 -i 8 -k MAC
h -t 1.278997271 -s 7 -d -1 -p message -e 90 -c 2 -a 0 -i 8 -k MAC
r -t 1.279717711 -s 5 -d -1 -p message -e 32 -c 2 -a 0 -i 8 -k MAC
r -t 1.279717883 -s 9 -d -1 -p message -e 32 -c 2 -a 0 -i 8 -k MAC
r -t 1.279717991 -s 8 -d -1 -p message -e 32 -c 2 -a 0 -i 8 -k MAC
r -t 1.279718010 -s 2 -d -1 -p message -e 32 -c 2 -a 0 -i 8 -k MAC
r -t 1.279742711 -s 5 -d -1 -p message -e 32 -c 2 -a 0 -i 8 -k RTR
r -t 1.279742883 -s 9 -d -1 -p message -e 32 -c 2 -a 0 -i 8 -k RTR
r -t 1.279742991 -s 8 -d -1 -p message -e 32 -c 2 -a 0 -i 8 -k RTR
r -t 1.279743010 -s 2 -d -1 -p message -e 32 -c 2 -a 0 -i 8 -k RTR
n -t 1.500000 -s 0 -x 502.000000 -y 404.000000 -U 99.963497 -V -2.701716 -T 1.480540
+ -t 1.607773557 -s 3 -d -1 -p message -e 32 -c 2 -a 0 -i 9 -k RTR 
- -t 1.607773557 -s 3 -d -1 -p message -e 32 -c 2 -a 0 -i 9 -k RTR
h -t 1.607773557 -s 3 -d -1 -p message -e 32 -c 2 -a 0 -i 9 -k RTR
+ -t 1.608428557 -s 3 -d -1 -p message -e 90 -c 2 -a 0 -i 9 -k MAC 
- -t 1.608428557 -s 3 -d -1 -p message -e 90 -c 2 -a 0 -i 9 -k MAC
h -t 1.608428557 -s 3 -d -1 -p message -e 90 -c 2 -a 0 -i 9 -k MAC
r -t 1.609149330 -s 4 -d -1 -p message -e 32 -c 2 -a 0 -i 9 -k MAC
r -t 1.609149364 -s 0 -d -1 -p message -e 32 -c 2 -a 0 -i 9 -k MAC
r -t 1.609149380 -s 6 -d -1 -p message -e 32 -c 2 -a 0 -i 9 -k MAC
r -t 1.609174330 -s 4 -d -1 -p message -e 32 -c 2 -a 0 -i 9 -k RTR
r -t 1.609174364 -s 0 -d -1 -p message -e 32 -c 2 -a 0 -i 9 -k RTR
r -t 1.609174380 -s 6 -d -1 -p message -e 32 -c 2 -a 0 -i 9 -k RTR
+ -t 1.633060186 -s 5 -d -1 -p message -e 32 -c 2 -a 0 -i 10 -k RTR 
- -t 1.633060186 -s 5 -d -1 -p message -e 32 -c 2 -a 0 -i 10 -k RTR
h -t 1.633060186 -s 5 -d -1 -p message -e 32 -c 2 -a 0 -i 10 -k RTR
+ -t 1.633635186 -s 5 -d -1 -p message -e 90 -c 2 -a 0 -i 10 -k MAC 
- -t 1.633635186 -s 5 -d -1 -p message -e 90 -c 2 -a 0 -i 10 -k MAC
h -t 1.633635186 -s 5 -d -1 -p message -e 90 -c 2 -a 0 -i 10 -k MAC
r -t 1.634355626 -s 7 -d -1 -p message -e 32 -c 2 -a 0 -i 10 -k MAC
r -t 1.634355802 -s 2 -d -1 -p message -e 32 -c 2 -a 0 -i 10 -k MAC
r -t 1.634355842 -s 8 -d -1 -p message -e 32 -c 2 -a 0 -i 10 -k MAC
r -t 1.634355940 -s 6 -d -1 -p message -e 32 -c 2 -a 0 -i 10 -k MAC
r -t 1.634355970 -s 4 -d -1 -p message -e 32 -c 2 -a 0 -i 10 -k MAC
r -t 1.634380626 -s 7 -d -1 -p message -e 32 -c 2 -a 0 -i 10 -k RTR
r -t 1.634380802 -s 2 -d -1 -p message -e 32 -c 2 -a 0 -i 10 -k RTR
r -t 1.634380842 -s 8 -d -1 -p message -e 32 -c 2 -a 0 -i 10 -k RTR
r -t 1.634380940 -s 6 -d -1 -p message -e 32 -c 2 -a 0 -i 10 -k RTR
r -t 1.634380970 -s 4 -d -1 -p message -e 32 -c 2 -a 0 -i 10 -k RTR
+ -t 1.679333313 -s 9 -d -1 -p message -e 32 -c 2 -a 0 -i 11 -k RTR 
- -t 1.679333313 -s 9 -d -1 -p message -e 32 -c 2 -a 0 -i 11 -k RTR
h -t 1.679333313 -s 9 -d -1 -p message -e 32 -c 2 -a 0 -i 11 -k RTR
+ -t 1.679888313 -s 9 -d -1 -p message -e 90 -c 2 -a 0 -i 11 -k MAC 
- -t 1.679888313 -s 9 -d -1 -p message -e 90 -c 2 -a 0 -i 11 -k MAC
h -t 1.679888313 -s 9 -d -1 -p message -e 90 -c 2 -a 0 -i 11 -k MAC
r -t 1.680608906 -s 8 -d -1 -p message -e 32 -c 2 -a 0 -i 11 -k MAC
r -t 1.680608925 -s 7 -d -1 -p message -e 32 -c 2 -a 0 -i 11 -k MAC
r -t 1.680633906 -s 8 -d -1 -p message -e 32 -c 2 -a 0 -i 11 -k RTR
r -t 1.680633925 -s 7 -d -1 -p message -e 32 -c 2 -a 0 -i 11 -k RTR
+ -t 3.500000000 -s 0 -d -1 -p tcp -e 40 -c 2 -a 0 -i 12 -k AGT 
- -t 3.500000000 -s 0 -d -1 -p tcp -e 40 -c 2 -a 0 -i 12 -k AGT
h -t 3.500000000 -s 0 -d -1 -p tcp -e 40 -c 2 -a 0 -i 12 -k AGT
+ -t 3.500000000 -s 3 -d -1 -p tcp -e 40 -c 2 -a 0 -i 13 -k AGT 
- -t 3.500000000 -s 3 -d -1 -p tcp -e 40 -c 2 -a 0 -i 13 -k AGT
h -t 3.500000000 -s 3 -d -1 -p tcp -e 40 -c 2 -a 0 -i 13 -k AGT
n -t 5.000000 -s 1 -x 656.000000 -y 552.000000 -U 0.000000 -V 150.000000 -T 0.653333
n -t 6.000000 -s 0 -x 650.000000 -y 400.000000 -U 3.352652 -V 84.933855 -T 1.789628
n -t 6.000000 -s 4 -x 730.000000 -y 398.000000 -U 0.000000 -V -100.000000 -T 0.980000
+ -t 9.500000000 -s 0 -d -1 -p tcp -e 40 -c 2 -a 0 -i 14 -k AGT 
- -t 9.500000000 -s 0 -d -1 -p tcp -e 40 -c 2 -a 0 -i 14 -k AGT
h -t 9.500000000 -s 0 -d -1 -p tcp -e 40 -c 2 -a 0 -i 14 -k AGT
+ -t 9.500000000 -s 3 -d -1 -p tcp -e 40 -c 2 -a 0 -i 15 -k AGT 
- -t 9.500000000 -s 3 -d -1 -p tcp -e 40 -c 2 -a 0 -i 15 -k AGT
h -t 9.500000000 -s 3 -d -1 -p tcp -e 40 -c 2 -a 0 -i 15 -k AGT
n -t 10.000000 -s 3 -x 627.000000 -y 190.000000 -U 89.990270 -V 1.323386 -T 0.755637
n -t 11.000000 -s 9 -x 1228.000000 -y 327.000000 -U -39.305521 -V -7.421322 -T 3.638166
+ -t 11.447655470 -s 0 -d -1 -p message -e 32 -c 2 -a 0 -i 16 -k RTR 
- -t 11.447655470 -s 0 -d -1 -p message -e 32 -c 2 -a 0 -i 16 -k RTR
h -t 11.447655470 -s 0 -d -1 -p message -e 32 -c 2 -a 0 -i 16 -k RTR
+ -t 11.447890470 -s 0 -d -1 -p message -e 90 -c 2 -a 0 -i 16 -k MAC 
- -t 11.447890470 -s 0 -d -1 -p message -e 90 -c 2 -a 0 -i 16 -k MAC
h -t 11.447890470 -s 0 -d -1 -p message -e 90 -c 2 -a 0 -i 16 -k MAC
r -t 11.448610796 -s 1 -d -1 -p message -e 32 -c 2 -a 0 -i 16 -k MAC
r -t 11.448611240 -s 2 -d -1 -p message -e 32 -c 2 -a 0 -i 16 -k MAC
r -t 11.448635796 -s 1 -d -1 -p message -e 32 -c 2 -a 0 -i 16 -k RTR
r -t 11.448636240 -s 2 -d -1 -p message -e 32 -c 2 -a 0 -i 16 -k RTR
+ -t 12.031307110 -s 4 -d -1 -p message -e 32 -c 2 -a 0 -i 18 -k RTR 
- -t 12.031307110 -s 4 -d -1 -p message -e 32 -c 2 -a 0 -i 18 -k RTR
h -t 12.031307110 -s 4 -d -1 -p message -e 32 -c 2 -a 0 -i 18 -k RTR
+ -t 12.031382110 -s 4 -d -1 -p message -e 90 -c 2 -a 0 -i 18 -k MAC 
- -t 12.031382110 -s 4 -d -1 -p message -e 90 -c 2 -a 0 -i 18 -k MAC
h -t 12.031382110 -s 4 -d -1 -p message -e 90 -c 2 -a 0 -i 18 -k MAC
r -t 12.032102492 -s 3 -d -1 -p message -e 32 -c 2 -a 0 -i 18 -k MAC
r -t 12.032102757 -s 6 -d -1 -p message -e 32 -c 2 -a 0 -i 18 -k MAC
r -t 12.032102930 -s 5 -d -1 -p message -e 32 -c 2 -a 0 -i 18 -k MAC
r -t 12.032127492 -s 3 -d -1 -p message -e 32 -c 2 -a 0 -i 18 -k RTR
r -t 12.032127757 -s 6 -d -1 -p message -e 32 -c 2 -a 0 -i 18 -k RTR
r -t 12.032127930 -s 5 -d -1 -p message -e 32 -c 2 -a 0 -i 18 -k RTR
+ -t 12.034304771 -s 3 -d -1 -p message -e 32 -c 2 -a 0 -i 19 -k RTR 
- -t 12.034304771 -s 3 -d -1 -p message -e 32 -c 2 -a 0 -i 19 -k RTR
h -t 12.034304771 -s 3 -d -1 -p message -e 32 -c 2 -a 0 -i 19 -k RTR
+ -t 12.034679771 -s 3 -d -1 -p message -e 90 -c 2 -a 0 -i 19 -k MAC 
- -t 12.034679771 -s 3 -d -1 -p message -e 90 -c 2 -a 0 -i 19 -k MAC
h -t 12.034679771 -s 3 -d -1 -p message -e 90 -c 2 -a 0 -i 19 -k MAC
r -t 12.035400153 -s 4 -d -1 -p message -e 32 -c 2 -a 0 -i 19 -k MAC
r -t 12.035400369 -s 6 -d -1 -p message -e 32 -c 2 -a 0 -i 19 -k MAC
r -t 12.035425153 -s 4 -d -1 -p message -e 32 -c 2 -a 0 -i 19 -k RTR
r -t 12.035425369 -s 6 -d -1 -p message -e 32 -c 2 -a 0 -i 19 -k RTR
+ -t 12.188210730 -s 2 -d -1 -p message -e 32 -c 2 -a 0 -i 20 -k RTR 
- -t 12.188210730 -s 2 -d -1 -p message -e 32 -c 2 -a 0 -i 20 -k RTR
h -t 12.188210730 -s 2 -d -1 -p message -e 32 -c 2 -a 0 -i 20 -k RTR
+ -t 12.188765730 -s 2 -d -1 -p message -e 90 -c 2 -a 0 -i 20 -k MAC 
- -t 12.188765730 -s 2 -d -1 -p message -e 90 -c 2 -a 0 -i 20 -k MAC
h -t 12.188765730 -s 2 -d -1 -p message -e 90 -c 2 -a 0 -i 20 -k MAC
r -t 12.189486346 -s 5 -d -1 -p message -e 32 -c 2 -a 0 -i 20 -k MAC
r -t 12.189486469 -s 7 -d -1 -p message -e 32 -c 2 -a 0 -i 20 -k MAC
r -t 12.189486501 -s 0 -d -1 -p message -e 32 -c 2 -a 0 -i 20 -k MAC
r -t 12.189511346 -s 5 -d -1 -p message -e 32 -c 2 -a 0 -i 20 -k RTR
r -t 12.189511469 -s 7 -d -1 -p message -e 32 -c 2 -a 0 -i 20 -k RTR
r -t 12.189511501 -s 0 -d -1 -p message -e 32 -c 2 -a 0 -i 20 -k RTR
+ -t 12.448648980 -s 0 -d -1 -p message -e 32 -c 2 -a 0 -i 21 -k RTR 
- -t 12.448648980 -s 0 -d -1 -p message -e 32 -c 2 -a 0 -i 21 -k RTR
h -t 12.448648980 -s 0 -d -1 -p message -e 32 -c 2 -a 0 -i 21 -k RTR
+ -t 12.449023980 -s 0 -d -1 -p message -e 90 -c 2 -a 0 -i 21 -k MAC 
- -t 12.449023980 -s 0 -d -1 -p message -e 90 -c 2 -a 0 -i 21 -k MAC
h -t 12.449023980 -s 0 -d -1 -p message -e 90 -c 2 -a 0 -i 21 -k MAC
r -t 12.449744306 -s 1 -d -1 -p message -e 32 -c 2 -a 0 -i 21 -k MAC
r -t 12.449744750 -s 2 -d -1 -p message -e 32 -c 2 -a 0 -i 21 -k MAC
r -t 12.449769306 -s 1 -d -1 -p message -e 32 -c 2 -a 0 -i 21 -k RTR
r -t 12.449769750 -s 2 -d -1 -p message -e 32 -c 2 -a 0 -i 21 -k RTR
+ -t 12.478815851 -s 8 -d -1 -p message -e 32 -c 2 -a 0 -i 22 -k RTR 
- -t 12.478815851 -s 8 -d -1 -p message -e 32 -c 2 -a 0 -i 22 -k RTR
h -t 12.478815851 -s 8 -d -1 -p message -e 32 -c 2 -a 0 -i 22 -k RTR
+ -t 12.479090851 -s 8 -d -1 -p message -e 90 -c 2 -a 0 -i 22 -k MAC 
- -t 12.479090851 -s 8 -d -1 -p message -e 90 -c 2 -a 0 -i 22 -k MAC
h -t 12.479090851 -s 8 -d -1 -p message -e 90 -c 2 -a 0 -i 22 -k MAC
r -t 12.479811276 -s 9 -d -1 -p message -e 32 -c 2 -a 0 -i 22 -k MAC
r -t 12.479811506 -s 5 -d -1 -p message -e 32 -c 2 -a 0 -i 22 -k MAC
r -t 12.479811571 -s 7 -d -1 -p message -e 32 -c 2 -a 0 -i 22 -k MAC
r -t 12.479811579 -s 6 -d -1 -p message -e 32 -c 2 -a 0 -i 22 -k MAC
r -t 12.479836276 -s 9 -d -1 -p message -e 32 -c 2 -a 0 -i 22 -k RTR
r -t 12.479836506 -s 5 -d -1 -p message -e 32 -c 2 -a 0 -i 22 -k RTR
r -t 12.479836571 -s 7 -d -1 -p message -e 32 -c 2 -a 0 -i 22 -k RTR
r -t 12.479836579 -s 6 -d -1 -p message -e 32 -c 2 -a 0 -i 22 -k RTR
+ -t 12.486965598 -s 5 -d -1 -p message -e 32 -c 2 -a 0 -i 23 -k RTR 
- -t 12.486965598 -s 5 -d -1 -p message -e 32 -c 2 -a 0 -i 23 -k RTR
h -t 12.486965598 -s 5 -d -1 -p message -e 32 -c 2 -a 0 -i 23 -k RTR
+ -t 12.487120598 -s 5 -d -1 -p message -e 90 -c 2 -a 0 -i 23 -k MAC 
- -t 12.487120598 -s 5 -d -1 -p message -e 90 -c 2 -a 0 -i 23 -k MAC
h -t 12.487120598 -s 5 -d -1 -p message -e 90 -c 2 -a 0 -i 23 -k MAC
r -t 12.487841038 -s 7 -d -1 -p message -e 32 -c 2 -a 0 -i 23 -k MAC
r -t 12.487841214 -s 2 -d -1 -p message -e 32 -c 2 -a 0 -i 23 -k MAC
r -t 12.487841253 -s 8 -d -1 -p message -e 32 -c 2 -a 0 -i 23 -k MAC
r -t 12.487841312 -s 9 -d -1 -p message -e 32 -c 2 -a 0 -i 23 -k MAC
r -t 12.487841352 -s 6 -d -1 -p message -e 32 -c 2 -a 0 -i 23 -k MAC
r -t 12.487841418 -s 4 -d -1 -p message -e 32 -c 2 -a 0 -i 23 -k MAC
r -t 12.487866038 -s 7 -d -1 -p message -e 32 -c 2 -a 0 -i 23 -k RTR
r -t 12.487866214 -s 2 -d -1 -p message -e 32 -c 2 -a 0 -i 23 -k RTR
r -t 12.487866253 -s 8 -d -1 -p message -e 32 -c 2 -a 0 -i 23 -k RTR
r -t 12.487866312 -s 9 -d -1 -p message -e 32 -c 2 -a 0 -i 23 -k RTR
r -t 12.487866352 -s 6 -d -1 -p message -e 32 -c 2 -a 0 -i 23 -k RTR
r -t 12.487866418 -s 4 -d -1 -p message -e 32 -c 2 -a 0 -i 23 -k RTR
+ -t 12.631625749 -s 6 -d -1 -p message -e 32 -c 2 -a 0 -i 26 -k RTR 
- -t 12.631625749 -s 6 -d -1 -p message -e 32 -c 2 -a 0 -i 26 -k RTR
h -t 12.631625749 -s 6 -d -1 -p message -e 32 -c 2 -a 0 -i 26 -k RTR
+ -t 12.632300749 -s 6 -d -1 -p message -e 90 -c 2 -a 0 -i 26 -k MAC 
- -t 12.632300749 -s 6 -d -1 -p message -e 90 -c 2 -a 0 -i 26 -k MAC
h -t 12.632300749 -s 6 -d -1 -p message -e 90 -c 2 -a 0 -i 26 -k MAC
+ -t 12.632489199 -s 9 -d -1 -p message -e 32 -c 2 -a 0 -i 24 -k RTR 
- -t 12.632489199 -s 9 -d -1 -p message -e 32 -c 2 -a 0 -i 24 -k RTR
h -t 12.632489199 -s 9 -d -1 -p message -e 32 -c 2 -a 0 -i 24 -k RTR
r -t 12.633021347 -s 3 -d -1 -p message -e 32 -c 2 -a 0 -i 26 -k MAC
r -t 12.633021395 -s 4 -d -1 -p message -e 32 -c 2 -a 0 -i 26 -k MAC
r -t 12.633021477 -s 8 -d -1 -p message -e 32 -c 2 -a 0 -i 26 -k MAC
r -t 12.633021503 -s 5 -d -1 -p message -e 32 -c 2 -a 0 -i 26 -k MAC
r -t 12.633046347 -s 3 -d -1 -p message -e 32 -c 2 -a 0 -i 26 -k RTR
r -t 12.633046395 -s 4 -d -1 -p message -e 32 -c 2 -a 0 -i 26 -k RTR
r -t 12.633046477 -s 8 -d -1 -p message -e 32 -c 2 -a 0 -i 26 -k RTR
r -t 12.633046503 -s 5 -d -1 -p message -e 32 -c 2 -a 0 -i 26 -k RTR
+ -t 12.633373800 -s 7 -d -1 -p message -e 32 -c 2 -a 0 -i 25 -k RTR 
- -t 12.633373800 -s 7 -d -1 -p message -e 32 -c 2 -a 0 -i 25 -k RTR
h -t 12.633373800 -s 7 -d -1 -p message -e 32 -c 2 -a 0 -i 25 -k RTR
+ -t 12.633555834 -s 9 -d -1 -p message -e 90 -c 2 -a 0 -i 24 -k MAC 
- -t 12.633555834 -s 9 -d -1 -p message -e 90 -c 2 -a 0 -i 24 -k MAC
h -t 12.633555834 -s 9 -d -1 -p message -e 90 -c 2 -a 0 -i 24 -k MAC
r -t 12.634276242 -s 8 -d -1 -p message -e 32 -c 2 -a 0 -i 24 -k MAC
r -t 12.634276325 -s 7 -d -1 -p message -e 32 -c 2 -a 0 -i 24 -k MAC
r -t 12.634276530 -s 5 -d -1 -p message -e 32 -c 2 -a 0 -i 24 -k MAC
r -t 12.634301242 -s 8 -d -1 -p message -e 32 -c 2 -a 0 -i 24 -k RTR
r -t 12.634301325 -s 7 -d -1 -p message -e 32 -c 2 -a 0 -i 24 -k RTR
r -t 12.634301530 -s 5 -d -1 -p message -e 32 -c 2 -a 0 -i 24 -k RTR
+ -t 12.634806325 -s 7 -d -1 -p message -e 90 -c 2 -a 0 -i 25 -k MAC 
- -t 12.634806325 -s 7 -d -1 -p message -e 90 -c 2 -a 0 -i 25 -k MAC
h -t 12.634806325 -s 7 -d -1 -p message -e 90 -c 2 -a 0 -i 25 -k MAC
r -t 12.635526765 -s 5 -d -1 -p message -e 32 -c 2 -a 0 -i 25 -k MAC
r -t 12.635526817 -s 9 -d -1 -p message -e 32 -c 2 -a 0 -i 25 -k MAC
r -t 12.635527045 -s 8 -d -1 -p message -e 32 -c 2 -a 0 -i 25 -k MAC
r -t 12.635527064 -s 2 -d -1 -p message -e 32 -c 2 -a 0 -i 25 -k MAC
r -t 12.635551765 -s 5 -d -1 -p message -e 32 -c 2 -a 0 -i 25 -k RTR
r -t 12.635551817 -s 9 -d -1 -p message -e 32 -c 2 -a 0 -i 25 -k RTR
r -t 12.635552045 -s 8 -d -1 -p message -e 32 -c 2 -a 0 -i 25 -k RTR
r -t 12.635552064 -s 2 -d -1 -p message -e 32 -c 2 -a 0 -i 25 -k RTR
+ -t 12.641086451 -s 1 -d -1 -p message -e 32 -c 2 -a 0 -i 27 -k RTR 
- -t 12.641086451 -s 1 -d -1 -p message -e 32 -c 2 -a 0 -i 27 -k RTR
h -t 12.641086451 -s 1 -d -1 -p message -e 32 -c 2 -a 0 -i 27 -k RTR
+ -t 12.641701451 -s 1 -d -1 -p message -e 90 -c 2 -a 0 -i 27 -k MAC 
- -t 12.641701451 -s 1 -d -1 -p message -e 90 -c 2 -a 0 -i 27 -k MAC
h -t 12.641701451 -s 1 -d -1 -p message -e 90 -c 2 -a 0 -i 27 -k MAC
r -t 12.642421777 -s 0 -d -1 -p message -e 32 -c 2 -a 0 -i 27 -k MAC
r -t 12.642446777 -s 0 -d -1 -p message -e 32 -c 2 -a 0 -i 27 -k RTR
+ -t 12.691771400 -s 4 -d -1 -p message -e 56 -c 2 -a 0 -i 28 -k RTR 
- -t 12.691771400 -s 4 -d -1 -p message -e 56 -c 2 -a 0 -i 28 -k RTR
h -t 12.691771400 -s 4 -d -1 -p message -e 56 -c 2 -a 0 -i 28 -k RTR
+ -t 12.692186400 -s 4 -d -1 -p message -e 114 -c 2 -a 0 -i 28 -k MAC 
- -t 12.692186400 -s 4 -d -1 -p message -e 114 -c 2 -a 0 -i 28 -k MAC
h -t 12.692186400 -s 4 -d -1 -p message -e 114 -c 2 -a 0 -i 28 -k MAC
r -t 12.693098782 -s 3 -d -1 -p message -e 56 -c 2 -a 0 -i 28 -k MAC
r -t 12.693099047 -s 6 -d -1 -p message -e 56 -c 2 -a 0 -i 28 -k MAC
r -t 12.693099220 -s 5 -d -1 -p message -e 56 -c 2 -a 0 -i 28 -k MAC
r -t 12.693123782 -s 3 -d -1 -p message -e 56 -c 2 -a 0 -i 28 -k RTR
r -t 12.693124047 -s 6 -d -1 -p message -e 56 -c 2 -a 0 -i 28 -k RTR
r -t 12.693124220 -s 5 -d -1 -p message -e 56 -c 2 -a 0 -i 28 -k RTR
+ -t 13.014959849 -s 1 -d -1 -p message -e 56 -c 2 -a 0 -i 29 -k RTR 
- -t 13.014959849 -s 1 -d -1 -p message -e 56 -c 2 -a 0 -i 29 -k RTR
h -t 13.014959849 -s 1 -d -1 -p message -e 56 -c 2 -a 0 -i 29 -k RTR
+ -t 13.015214849 -s 1 -d -1 -p message -e 114 -c 2 -a 0 -i 29 -k MAC 
- -t 13.015214849 -s 1 -d -1 -p message -e 114 -c 2 -a 0 -i 29 -k MAC
h -t 13.015214849 -s 1 -d -1 -p message -e 114 -c 2 -a 0 -i 29 -k MAC
r -t 13.016127176 -s 0 -d -1 -p message -e 56 -c 2 -a 0 -i 29 -k MAC
r -t 13.016152176 -s 0 -d -1 -p message -e 56 -c 2 -a 0 -i 29 -k RTR
+ -t 13.034684075 -s 3 -d -1 -p message -e 44 -c 2 -a 0 -i 31 -k RTR 
- -t 13.034684075 -s 3 -d -1 -p message -e 44 -c 2 -a 0 -i 31 -k RTR
h -t 13.034684075 -s 3 -d -1 -p message -e 44 -c 2 -a 0 -i 31 -k RTR
+ -t 13.034919075 -s 3 -d -1 -p message -e 102 -c 2 -a 0 -i 31 -k MAC 
- -t 13.034919075 -s 3 -d -1 -p message -e 102 -c 2 -a 0 -i 31 -k MAC
h -t 13.034919075 -s 3 -d -1 -p message -e 102 -c 2 -a 0 -i 31 -k MAC
r -t 13.035735456 -s 4 -d -1 -p message -e 44 -c 2 -a 0 -i 31 -k MAC
r -t 13.035735673 -s 6 -d -1 -p message -e 44 -c 2 -a 0 -i 31 -k MAC
r -t 13.035760456 -s 4 -d -1 -p message -e 44 -c 2 -a 0 -i 31 -k RTR
r -t 13.035760673 -s 6 -d -1 -p message -e 44 -c 2 -a 0 -i 31 -k RTR
+ -t 13.036101742 -s 6 -d -1 -p message -e 44 -c 2 -a 0 -i 30 -k RTR 
- -t 13.036101742 -s 6 -d -1 -p message -e 44 -c 2 -a 0 -i 30 -k RTR
h -t 13.036101742 -s 6 -d -1 -p message -e 44 -c 2 -a 0 -i 30 -k RTR
+ -t 13.036176742 -s 6 -d -1 -p message -e 102 -c 2 -a 0 -i 30 -k MAC 
- -t 13.036176742 -s 6 -d -1 -p message -e 102 -c 2 -a 0 -i 30 -k MAC
h -t 13.036176742 -s 6 -d -1 -p message -e 102 -c 2 -a 0 -i 30 -k MAC
r -t 13.036993339 -s 3 -d -1 -p message -e 44 -c 2 -a 0 -i 30 -k MAC
r -t 13.036993388 -s 4 -d -1 -p message -e 44 -c 2 -a 0 -i 30 -k MAC
r -t 13.036993469 -s 8 -d -1 -p message -e 44 -c 2 -a 0 -i 30 -k MAC
r -t 13.036993495 -s 5 -d -1 -p message -e 44 -c 2 -a 0 -i 30 -k MAC
r -t 13.037018339 -s 3 -d -1 -p message -e 44 -c 2 -a 0 -i 30 -k RTR
r -t 13.037018388 -s 4 -d -1 -p message -e 44 -c 2 -a 0 -i 30 -k RTR
r -t 13.037018469 -s 8 -d -1 -p message -e 44 -c 2 -a 0 -i 30 -k RTR
r -t 13.037018495 -s 5 -d -1 -p message -e 44 -c 2 -a 0 -i 30 -k RTR
+ -t 13.194943346 -s 2 -d -1 -p message -e 44 -c 2 -a 0 -i 32 -k RTR 
- -t 13.194943346 -s 2 -d -1 -p message -e 44 -c 2 -a 0 -i 32 -k RTR
h -t 13.194943346 -s 2 -d -1 -p message -e 44 -c 2 -a 0 -i 32 -k RTR
+ -t 13.195338346 -s 2 -d -1 -p message -e 102 -c 2 -a 0 -i 32 -k MAC 
- -t 13.195338346 -s 2 -d -1 -p message -e 102 -c 2 -a 0 -i 32 -k MAC
h -t 13.195338346 -s 2 -d -1 -p message -e 102 -c 2 -a 0 -i 32 -k MAC
r -t 13.196154962 -s 5 -d -1 -p message -e 44 -c 2 -a 0 -i 32 -k MAC
r -t 13.196155085 -s 7 -d -1 -p message -e 44 -c 2 -a 0 -i 32 -k MAC
r -t 13.196155117 -s 0 -d -1 -p message -e 44 -c 2 -a 0 -i 32 -k MAC
r -t 13.196179962 -s 5 -d -1 -p message -e 44 -c 2 -a 0 -i 32 -k RTR
r -t 13.196180085 -s 7 -d -1 -p message -e 44 -c 2 -a 0 -i 32 -k RTR
r -t 13.196180117 -s 0 -d -1 -p message -e 44 -c 2 -a 0 -i 32 -k RTR
+ -t 13.439208327 -s 0 -d -1 -p message -e 32 -c 2 -a 0 -i 33 -k RTR 
- -t 13.439208327 -s 0 -d -1 -p message -e 32 -c 2 -a 0 -i 33 -k RTR
h -t 13.439208327 -s 0 -d -1 -p message -e 32 -c 2 -a 0 -i 33 -k RTR
+ -t 13.439603327 -s 0 -d -1 -p message -e 90 -c 2 -a 0 -i 33 -k MAC 
- -t 13.439603327 -s 0 -d -1 -p message -e 90 -c 2 -a 0 -i 33 -k MAC
h -t 13.439603327 -s 0 -d -1 -p message -e 90 -c 2 -a 0 -i 33 -k MAC
r -t 13.440323654 -s 1 -d -1 -p message -e 32 -c 2 -a 0 -i 33 -k MAC
r -t 13.440324098 -s 2 -d -1 -p message -e 32 -c 2 -a 0 -i 33 -k MAC
r -t 13.440348654 -s 1 -d -1 -p message -e 32 -c 2 -a 0 -i 33 -k RTR
r -t 13.440349098 -s 2 -d -1 -p message -e 32 -c 2 -a 0 -i 33 -k RTR
+ -t 13.483522012 -s 5 -d -1 -p message -e 56 -c 2 -a 0 -i 35 -k RTR 
- -t 13.483522012 -s 5 -d -1 -p message -e 56 -c 2 -a 0 -i 35 -k RTR
h -t 13.483522012 -s 5 -d -1 -p message -e 56 -c 2 -a 0 -i 35 -k RTR
+ -t 13.483697012 -s 5 -d -1 -p message -e 114 -c 2 -a 0 -i 35 -k MAC 
- -t 13.483697012 -s 5 -d -1 -p message -e 114 -c 2 -a 0 -i 35 -k MAC
h -t 13.483697012 -s 5 -d -1 -p message -e 114 -c 2 -a 0 -i 35 -k MAC
r -t 13.484609452 -s 7 -d -1 -p message -e 56 -c 2 -a 0 -i 35 -k MAC
r -t 13.484609610 -s 9 -d -1 -p message -e 56 -c 2 -a 0 -i 35 -k MAC
r -t 13.484609628 -s 2 -d -1 -p message -e 56 -c 2 -a 0 -i 35 -k MAC
r -t 13.484609667 -s 8 -d -1 -p message -e 56 -c 2 -a 0 -i 35 -k MAC
r -t 13.484609766 -s 6 -d -1 -p message -e 56 -c 2 -a 0 -i 35 -k MAC
r -t 13.484609832 -s 4 -d -1 -p message -e 56 -c 2 -a 0 -i 35 -k MAC
r -t 13.484634452 -s 7 -d -1 -p message -e 56 -c 2 -a 0 -i 35 -k RTR
r -t 13.484634610 -s 9 -d -1 -p message -e 56 -c 2 -a 0 -i 35 -k RTR
r -t 13.484634628 -s 2 -d -1 -p message -e 56 -c 2 -a 0 -i 35 -k RTR
r -t 13.484634667 -s 8 -d -1 -p message -e 56 -c 2 -a 0 -i 35 -k RTR
r -t 13.484634766 -s 6 -d -1 -p message -e 56 -c 2 -a 0 -i 35 -k RTR
r -t 13.484634832 -s 4 -d -1 -p message -e 56 -c 2 -a 0 -i 35 -k RTR
+ -t 13.486210801 -s 8 -d -1 -p message -e 32 -c 2 -a 0 -i 34 -k RTR 
- -t 13.486210801 -s 8 -d -1 -p message -e 32 -c 2 -a 0 -i 34 -k RTR
h -t 13.486210801 -s 8 -d -1 -p message -e 32 -c 2 -a 0 -i 34 -k RTR
+ -t 13.486345801 -s 8 -d -1 -p message -e 90 -c 2 -a 0 -i 34 -k MAC 
- -t 13.486345801 -s 8 -d -1 -p message -e 90 -c 2 -a 0 -i 34 -k MAC
h -t 13.486345801 -s 8 -d -1 -p message -e 90 -c 2 -a 0 -i 34 -k MAC
r -t 13.487066129 -s 9 -d -1 -p message -e 32 -c 2 -a 0 -i 34 -k MAC
r -t 13.487066456 -s 5 -d -1 -p message -e 32 -c 2 -a 0 -i 34 -k MAC
r -t 13.487066521 -s 7 -d -1 -p message -e 32 -c 2 -a 0 -i 34 -k MAC
r -t 13.487066528 -s 6 -d -1 -p message -e 32 -c 2 -a 0 -i 34 -k MAC
r -t 13.487091129 -s 9 -d -1 -p message -e 32 -c 2 -a 0 -i 34 -k RTR
r -t 13.487091456 -s 5 -d -1 -p message -e 32 -c 2 -a 0 -i 34 -k RTR
r -t 13.487091521 -s 7 -d -1 -p message -e 32 -c 2 -a 0 -i 34 -k RTR
r -t 13.487091528 -s 6 -d -1 -p message -e 32 -c 2 -a 0 -i 34 -k RTR
+ -t 13.620465099 -s 8 -d -1 -p message -e 44 -c 2 -a 0 -i 36 -k RTR 
- -t 13.620465099 -s 8 -d -1 -p message -e 44 -c 2 -a 0 -i 36 -k RTR
h -t 13.620465099 -s 8 -d -1 -p message -e 44 -c 2 -a 0 -i 36 -k RTR
+ -t 13.620560099 -s 8 -d -1 -p message -e 102 -c 2 -a 0 -i 36 -k MAC 
- -t 13.620560099 -s 8 -d -1 -p message -e 102 -c 2 -a 0 -i 36 -k MAC
h -t 13.620560099 -s 8 -d -1 -p message -e 102 -c 2 -a 0 -i 36 -k MAC
r -t 13.621376417 -s 9 -d -1 -p message -e 44 -c 2 -a 0 -i 36 -k MAC
r -t 13.621376754 -s 5 -d -1 -p message -e 44 -c 2 -a 0 -i 36 -k MAC
r -t 13.621376819 -s 7 -d -1 -p message -e 44 -c 2 -a 0 -i 36 -k MAC
r -t 13.621376827 -s 6 -d -1 -p message -e 44 -c 2 -a 0 -i 36 -k MAC
r -t 13.621401417 -s 9 -d -1 -p message -e 44 -c 2 -a 0 -i 36 -k RTR
r -t 13.621401754 -s 5 -d -1 -p message -e 44 -c 2 -a 0 -i 36 -k RTR
r -t 13.621401819 -s 7 -d -1 -p message -e 44 -c 2 -a 0 -i 36 -k RTR
r -t 13.621401827 -s 6 -d -1 -p message -e 44 -c 2 -a 0 -i 36 -k RTR
+ -t 13.626486717 -s 9 -d -1 -p message -e 32 -c 2 -a 0 -i 37 -k RTR 
- -t 13.626486717 -s 9 -d -1 -p message -e 32 -c 2 -a 0 -i 37 -k RTR
h -t 13.626486717 -s 9 -d -1 -p message -e 32 -c 2 -a 0 -i 37 -k RTR
+ -t 13.626581717 -s 9 -d -1 -p message -e 90 -c 2 -a 0 -i 37 -k MAC 
- -t 13.626581717 -s 9 -d -1 -p message -e 90 -c 2 -a 0 -i 37 -k MAC
h -t 13.626581717 -s 9 -d -1 -p message -e 90 -c 2 -a 0 -i 37 -k MAC
r -t 13.627302035 -s 8 -d -1 -p message -e 32 -c 2 -a 0 -i 37 -k MAC
r -t 13.627302173 -s 7 -d -1 -p message -e 32 -c 2 -a 0 -i 37 -k MAC
r -t 13.627302300 -s 5 -d -1 -p message -e 32 -c 2 -a 0 -i 37 -k MAC
r -t 13.627327035 -s 8 -d -1 -p message -e 32 -c 2 -a 0 -i 37 -k RTR
r -t 13.627327173 -s 7 -d -1 -p message -e 32 -c 2 -a 0 -i 37 -k RTR
r -t 13.627327300 -s 5 -d -1 -p message -e 32 -c 2 -a 0 -i 37 -k RTR
+ -t 13.628649372 -s 7 -d -1 -p message -e 32 -c 2 -a 0 -i 38 -k RTR 
- -t 13.628649372 -s 7 -d -1 -p message -e 32 -c 2 -a 0 -i 38 -k RTR
h -t 13.628649372 -s 7 -d -1 -p message -e 32 -c 2 -a 0 -i 38 -k RTR
+ -t 13.629104372 -s 7 -d -1 -p message -e 90 -c 2 -a 0 -i 38 -k MAC 
- -t 13.629104372 -s 7 -d -1 -p message -e 90 -c 2 -a 0 -i 38 -k MAC
h -t 13.629104372 -s 7 -d -1 -p message -e 90 -c 2 -a 0 -i 38 -k MAC
r -t 13.629824812 -s 5 -d -1 -p message -e 32 -c 2 -a 0 -i 38 -k MAC