n -t * -s 0  -x 233 -y 399 -Z 0 -z 20  -v circle -c black
n -t * -s 1  -x 386 -y 447 -Z 0 -z 20  -v circle -c black
n -t * -s 2  -x 386 -y 581 -Z 0 -z 20  -v circle -c black
n -t * -s 3  -x 530 -y 566 -Z 0 -z 20  -v circle -c black
n -t * -s 4  -x 573 -y 421 -Z 0 -z 20  -v circle -c black
n -t * -s 5  -x 720 -y 271 -Z 0 -z 20  -v circle -c black
n -t * -s 6  -x 648 -y 478 -Z 0 -z 20  -v circle -c black
n -t * -s 7  -x 739 -y 604 -Z 0 -z 20  -v circle -c black
n -t * -s 8  -x 838 -y 397 -Z 0 -z 20  -v circle -c black
n -t * -s 9  -x 911 -y 568 -Z 0 -z 20  -v circle -c black
n -t * -s 10  -x 979 -y 308 -Z 0 -z 20  -v circle -c black
n -t * -s 11  -x 981 -y 408 -Z 0 -z 20  -v circle -c black
n -t * -s 12  -x 891 -y 166 -Z 0 -z 20  -v circle -c black
n -t * -s 13  -x 727 -y 93 -Z 0 -z 20  -v circle -c black
n -t * -s 14  -x 575 -y 179 -Z 0 -z 20  -v circle -c black
n -t * -s 15  -x 453 -y 167 -Z 0 -z 20  -v circle -c black
n -t * -s 16  -x 448 -y 241 -Z 0 -z 20  -v circle -c black
n -t * -s 17  -x 375 -y 161 -Z 0 -z 20  -v circle -c black
n -t * -s 18  -x 566 -y 83 -Z 0 -z 20  -v circle -c black
n -t * -s 19  -x 579 -y 291 -Z 0 -z 20  -v circle -c black
V -t * -v 1.0a5 -a 0
W -t * -x 917 -y 2270
A -t * -n 1 -p 0 -o 0x7fffffff -c 30 -a 1
A -t * -h 1 -m 1073741823 -s 0
n -t 0 -s 0 -S DLABEL -l "SOURCE 1" -L ""
n -t 0 -s 0 -S COLOR -c blue -o blue -i blue -I blue
n -t 0 -s 9 -S DLABEL -l "DESTINATION 1" -L ""
n -t 0 -s 9 -S COLOR -c blue -o blue -i blue -I blue
n -t 0 -s 14 -S DLABEL -l "SOURCE 2" -L ""
n -t 0 -s 14 -S COLOR -c red -o red -i red -I red
n -t 0 -s 10 -S DLABEL -l "DESTINATION 2" -L ""
n -t 0 -s 10 -S COLOR -c red -o red -i red -I red
+ -t 1.000000000 -s 0 -d -1 -p cbr -e 1000 -c 2 -a 0 -i 0 -k AGT 
- -t 1.000000000 -s 0 -d -1 -p cbr -e 1000 -c 2 -a 0 -i 0 -k AGT
h -t 1.000000000 -s 0 -d -1 -p cbr -e 1000 -c 2 -a 0 -i 0 -k AGT
+ -t 1.000000000 -s 14 -d -1 -p cbr -e 1000 -c 2 -a 0 -i 2 -k AGT 
- -t 1.000000000 -s 14 -d -1 -p cbr -e 1000 -c 2 -a 0 -i 2 -k AGT
h -t 1.000000000 -s 14 -d -1 -p cbr -e 1000 -c 2 -a 0 -i 2 -k AGT
+ -t 1.004336043 -s 14 -d -1 -p DSR -e 32 -c 2 -a 0 -i 3 -k RTR 
- -t 1.004336043 -s 14 -d -1 -p DSR -e 32 -c 2 -a 0 -i 3 -k RTR
h -t 1.004336043 -s 14 -d -1 -p DSR -e 32 -c 2 -a 0 -i 3 -k RTR
+ -t 1.004571043 -s 14 -d -1 -p DSR -e 90 -c 2 -a 0 -i 3 -k MAC 
- -t 1.004571043 -s 14 -d -1 -p DSR -e 90 -c 2 -a 0 -i 3 -k MAC
h -t 1.004571043 -s 14 -d -1 -p DSR -e 90 -c 2 -a 0 -i 3 -k MAC
r -t 1.005291365 -s 18 -d -1 -p DSR -e 32 -c 2 -a 0 -i 3 -k MAC
r -t 1.005291417 -s 19 -d -1 -p DSR -e 32 -c 2 -a 0 -i 3 -k MAC
r -t 1.005291452 -s 15 -d -1 -p DSR -e 32 -c 2 -a 0 -i 3 -k MAC
r -t 1.005291514 -s 16 -d -1 -p DSR -e 32 -c 2 -a 0 -i 3 -k MAC
r -t 1.005291616 -s 5 -d -1 -p DSR -e 32 -c 2 -a 0 -i 3 -k MAC
r -t 1.005291625 -s 13 -d -1 -p DSR -e 32 -c 2 -a 0 -i 3 -k MAC
r -t 1.005291713 -s 17 -d -1 -p DSR -e 32 -c 2 -a 0 -i 3 -k MAC
r -t 1.005291850 -s 4 -d -1 -p DSR -e 32 -c 2 -a 0 -i 3 -k MAC
+ -t 1.009047872 -s 0 -d -1 -p DSR -e 32 -c 2 -a 0 -i 1 -k RTR 
- -t 1.009047872 -s 0 -d -1 -p DSR -e 32 -c 2 -a 0 -i 1 -k RTR
h -t 1.009047872 -s 0 -d -1 -p DSR -e 32 -c 2 -a 0 -i 1 -k RTR
+ -t 1.009462872 -s 0 -d -1 -p DSR -e 90 -c 2 -a 0 -i 1 -k MAC 
- -t 1.009462872 -s 0 -d -1 -p DSR -e 90 -c 2 -a 0 -i 1 -k MAC
h -t 1.009462872 -s 0 -d -1 -p DSR -e 90 -c 2 -a 0 -i 1 -k MAC
r -t 1.010183407 -s 1 -d -1 -p DSR -e 32 -c 2 -a 0 -i 1 -k MAC
r -t 1.010183665 -s 2 -d -1 -p DSR -e 32 -c 2 -a 0 -i 1 -k MAC
+ -t 1.050000000 -s 0 -d -1 -p cbr -e 1000 -c 2 -a 0 -i 6 -k AGT 
- -t 1.050000000 -s 0 -d -1 -p cbr -e 1000 -c 2 -a 0 -i 6 -k AGT
h -t 1.050000000 -s 0 -d -1 -p cbr -e 1000 -c 2 -a 0 -i 6 -k AGT
+ -t 1.050000000 -s 14 -d -1 -p cbr -e 1000 -c 2 -a 0 -i 8 -k AGT 
- -t 1.050000000 -s 14 -d -1 -p cbr -e 1000 -c 2 -a 0 -i 8 -k AGT
h -t 1.050000000 -s 14 -d -1 -p cbr -e 1000 -c 2 -a 0 -i 8 -k AGT
+ -t 1.051868501 -s 0 -d -1 -p DSR -e 32 -c 2 -a 0 -i 7 -k RTR 
- -t 1.051868501 -s 0 -d -1 -p DSR -e 32 -c 2 -a 0 -i 7 -k RTR
h -t 1.051868501 -s 0 -d -1 -p DSR -e 32 -c 2 -a 0 -i 7 -k RTR
+ -t 1.052383501 -s 0 -d -1 -p DSR -e 90 -c 2 -a 0 -i 7 -k MAC 
- -t 1.052383501 -s 0 -d -1 -p DSR -e 90 -c 2 -a 0 -i 7 -k MAC
h -t 1.052383501 -s 0 -d -1 -p DSR -e 90 -c 2 -a 0 -i 7 -k MAC
r -t 1.053104035 -s 1 -d -1 -p DSR -e 32 -c 2 -a 0 -i 7 -k MAC
r -t 1.053104294 -s 2 -d -1 -p DSR -e 32 -c 2 -a 0 -i 7 -k MAC
+ -t 1.054076629 -s 1 -d -1 -p DSR -e 48 -c 2 -a 0 -i 7 -k RTR 
- -t 1.054076629 -s 1 -d -1 -p DSR -e 48 -c 2 -a 0 -i 7 -k RTR
h -t 1.054076629 -s 1 -d -1 -p DSR -e 48 -c 2 -a 0 -i 7 -k RTR
+ -t 1.054171629 -s 1 -d -1 -p DSR -e 106 -c 2 -a 0 -i 7 -k MAC 
- -t 1.054171629 -s 1 -d -1 -p DSR -e 106 -c 2 -a 0 -i 7 -k MAC
h -t 1.054171629 -s 1 -d -1 -p DSR -e 106 -c 2 -a 0 -i 7 -k MAC
+ -t 1.054837880 -s 14 -d -1 -p DSR -e 32 -c 2 -a 0 -i 9 -k RTR 
- -t 1.054837880 -s 14 -d -1 -p DSR -e 32 -c 2 -a 0 -i 9 -k RTR
h -t 1.054837880 -s 14 -d -1 -p DSR -e 32 -c 2 -a 0 -i 9 -k RTR
r -t 1.055020075 -s 2 -d -1 -p DSR -e 48 -c 2 -a 0 -i 7 -k MAC
r -t 1.055020163 -s 0 -d -1 -p DSR -e 48 -c 2 -a 0 -i 7 -k MAC
r -t 1.055020251 -s 3 -d -1 -p DSR -e 48 -c 2 -a 0 -i 7 -k MAC
r -t 1.055020258 -s 4 -d -1 -p DSR -e 48 -c 2 -a 0 -i 7 -k MAC
r -t 1.055020346 -s 16 -d -1 -p DSR -e 48 -c 2 -a 0 -i 7 -k MAC
r -t 1.055020456 -s 19 -d -1 -p DSR -e 48 -c 2 -a 0 -i 7 -k MAC
+ -t 1.055554722 -s 14 -d -1 -p DSR -e 90 -c 2 -a 0 -i 9 -k MAC 
- -t 1.055554722 -s 14 -d -1 -p DSR -e 90 -c 2 -a 0 -i 9 -k MAC
h -t 1.055554722 -s 14 -d -1 -p DSR -e 90 -c 2 -a 0 -i 9 -k MAC
r -t 1.056275043 -s 18 -d -1 -p DSR -e 32 -c 2 -a 0 -i 9 -k MAC
r -t 1.056275095 -s 19 -d -1 -p DSR -e 32 -c 2 -a 0 -i 9 -k MAC
r -t 1.056275131 -s 15 -d -1 -p DSR -e 32 -c 2 -a 0 -i 9 -k MAC
r -t 1.056275193 -s 16 -d -1 -p DSR -e 32 -c 2 -a 0 -i 9 -k MAC
r -t 1.056275294 -s 5 -d -1 -p DSR -e 32 -c 2 -a 0 -i 9 -k MAC
r -t 1.056275304 -s 13 -d -1 -p DSR -e 32 -c 2 -a 0 -i 9 -k MAC
r -t 1.056275391 -s 17 -d -1 -p DSR -e 32 -c 2 -a 0 -i 9 -k MAC
r -t 1.056275529 -s 4 -d -1 -p DSR -e 32 -c 2 -a 0 -i 9 -k MAC
+ -t 1.056540869 -s 19 -d -1 -p DSR -e 68 -c 2 -a 0 -i 7 -k RTR 
- -t 1.056540869 -s 19 -d -1 -p DSR -e 68 -c 2 -a 0 -i 7 -k RTR
h -t 1.056540869 -s 19 -d -1 -p DSR -e 68 -c 2 -a 0 -i 7 -k RTR
+ -t 1.057135869 -s 19 -d -1 -p DSR -e 126 -c 2 -a 0 -i 7 -k MAC 
- -t 1.057135869 -s 19 -d -1 -p DSR -e 126 -c 2 -a 0 -i 7 -k MAC
h -t 1.057135869 -s 19 -d -1 -p DSR -e 126 -c 2 -a 0 -i 7 -k MAC
+ -t 1.057187539 -s 16 -d -1 -p DSR -e 68 -c 2 -a 0 -i 7 -k RTR 
- -t 1.057187539 -s 16 -d -1 -p DSR -e 68 -c 2 -a 0 -i 7 -k RTR
h -t 1.057187539 -s 16 -d -1 -p DSR -e 68 -c 2 -a 0 -i 7 -k RTR
+ -t 1.057193010 -s 4 -d -1 -p DSR -e 48 -c 2 -a 0 -i 9 -k RTR 
- -t 1.057193010 -s 4 -d -1 -p DSR -e 48 -c 2 -a 0 -i 9 -k RTR
h -t 1.057193010 -s 4 -d -1 -p DSR -e 48 -c 2 -a 0 -i 9 -k RTR
r -t 1.058144243 -s 14 -d -1 -p DSR -e 68 -c 2 -a 0 -i 7 -k MAC
r -t 1.058144303 -s 4 -d -1 -p DSR -e 68 -c 2 -a 0 -i 7 -k MAC
r -t 1.058144337 -s 16 -d -1 -p DSR -e 68 -c 2 -a 0 -i 7 -k MAC
r -t 1.058144344 -s 5 -d -1 -p DSR -e 68 -c 2 -a 0 -i 7 -k MAC
r -t 1.058144459 -s 15 -d -1 -p DSR -e 68 -c 2 -a 0 -i 7 -k MAC
r -t 1.058144534 -s 6 -d -1 -p DSR -e 68 -c 2 -a 0 -i 7 -k MAC
r -t 1.058144564 -s 18 -d -1 -p DSR -e 68 -c 2 -a 0 -i 7 -k MAC
r -t 1.058144676 -s 17 -d -1 -p DSR -e 68 -c 2 -a 0 -i 7 -k MAC
r -t 1.058144693 -s 13 -d -1 -p DSR -e 68 -c 2 -a 0 -i 7 -k MAC
r -t 1.058144697 -s 1 -d -1 -p DSR -e 68 -c 2 -a 0 -i 7 -k MAC
+ -t 1.058194337 -s 16 -d -1 -p DSR -e 126 -c 2 -a 0 -i 7 -k MAC 
- -t 1.058194337 -s 16 -d -1 -p DSR -e 126 -c 2 -a 0 -i 7 -k MAC
h -t 1.058194337 -s 16 -d -1 -p DSR -e 126 -c 2 -a 0 -i 7 -k MAC
+ -t 1.058245975 -s 5 -d -1 -p DSR -e 92 -c 2 -a 0 -i 7 -k RTR 
- -t 1.058245975 -s 5 -d -1 -p DSR -e 92 -c 2 -a 0 -i 7 -k RTR
h -t 1.058245975 -s 5 -d -1 -p DSR -e 92 -c 2 -a 0 -i 7 -k RTR
+ -t 1.058536961 -s 2 -d -1 -p DSR -e 48 -c 2 -a 0 -i 7 -k RTR 
- -t 1.058536961 -s 2 -d -1 -p DSR -e 48 -c 2 -a 0 -i 7 -k RTR
h -t 1.058536961 -s 2 -d -1 -p DSR -e 48 -c 2 -a 0 -i 7 -k RTR
+ -t 1.058582365 -s 17 -d -1 -p DSR -e 48 -c 2 -a 0 -i 9 -k RTR 
- -t 1.058582365 -s 17 -d -1 -p DSR -e 48 -c 2 -a 0 -i 9 -k RTR
h -t 1.058582365 -s 17 -d -1 -p DSR -e 48 -c 2 -a 0 -i 9 -k RTR
+ -t 1.058605202 -s 3 -d -1 -p DSR -e 68 -c 2 -a 0 -i 7 -k RTR 
- -t 1.058605202 -s 3 -d -1 -p DSR -e 68 -c 2 -a 0 -i 7 -k RTR
h -t 1.058605202 -s 3 -d -1 -p DSR -e 68 -c 2 -a 0 -i 7 -k RTR
+ -t 1.059142134 -s 16 -d -1 -p DSR -e 48 -c 2 -a 0 -i 9 -k RTR 
- -t 1.059142134 -s 16 -d -1 -p DSR -e 48 -c 2 -a 0 -i 9 -k RTR
h -t 1.059142134 -s 16 -d -1 -p DSR -e 48 -c 2 -a 0 -i 9 -k RTR
r -t 1.059202584 -s 15 -d -1 -p DSR -e 68 -c 2 -a 0 -i 7 -k MAC
r -t 1.059202698 -s 17 -d -1 -p DSR -e 68 -c 2 -a 0 -i 7 -k MAC
r -t 1.059202804 -s 19 -d -1 -p DSR -e 68 -c 2 -a 0 -i 7 -k MAC
r -t 1.059202808 -s 14 -d -1 -p DSR -e 68 -c 2 -a 0 -i 7 -k MAC
r -t 1.059202994 -s 18 -d -1 -p DSR -e 68 -c 2 -a 0 -i 7 -k MAC
r -t 1.059203054 -s 1 -d -1 -p DSR -e 68 -c 2 -a 0 -i 7 -k MAC
r -t 1.059203067 -s 4 -d -1 -p DSR -e 68 -c 2 -a 0 -i 7 -k MAC
+ -t 1.059252337 -s 16 -d -1 -p DSR -e 106 -c 2 -a 0 -i 9 -k MAC 
- -t 1.059252337 -s 16 -d -1 -p DSR -e 106 -c 2 -a 0 -i 9 -k MAC
h -t 1.059252337 -s 16 -d -1 -p DSR -e 106 -c 2 -a 0 -i 9 -k MAC
r -t 1.060100584 -s 15 -d -1 -p DSR -e 48 -c 2 -a 0 -i 9 -k MAC
r -t 1.060100698 -s 17 -d -1 -p DSR -e 48 -c 2 -a 0 -i 9 -k MAC
r -t 1.060100804 -s 19 -d -1 -p DSR -e 48 -c 2 -a 0 -i 9 -k MAC
r -t 1.060100808 -s 14 -d -1 -p DSR -e 48 -c 2 -a 0 -i 9 -k MAC
r -t 1.060100994 -s 18 -d -1 -p DSR -e 48 -c 2 -a 0 -i 9 -k MAC
r -t 1.060101054 -s 1 -d -1 -p DSR -e 48 -c 2 -a 0 -i 9 -k MAC
r -t 1.060101067 -s 4 -d -1 -p DSR -e 48 -c 2 -a 0 -i 9 -k MAC
+ -t 1.060210698 -s 17 -d -1 -p DSR -e 106 -c 2 -a 0 -i 9 -k MAC 
- -t 1.060210698 -s 17 -d -1 -p DSR -e 106 -c 2 -a 0 -i 9 -k MAC
h -t 1.060210698 -s 17 -d -1 -p DSR -e 106 -c 2 -a 0 -i 9 -k MAC
+ -t 1.060590854 -s 17 -d -1 -p DSR -e 92 -c 2 -a 0 -i 7 -k RTR 
- -t 1.060590854 -s 17 -d -1 -p DSR -e 92 -c 2 -a 0 -i 7 -k RTR
h -t 1.060590854 -s 17 -d -1 -p DSR -e 92 -c 2 -a 0 -i 7 -k RTR
r -t 1.061058959 -s 15 -d -1 -p DSR -e 48 -c 2 -a 0 -i 9 -k MAC
r -t 1.061059059 -s 16 -d -1 -p DSR -e 48 -c 2 -a 0 -i 9 -k MAC
r -t 1.061059367 -s 14 -d -1 -p DSR -e 48 -c 2 -a 0 -i 9 -k MAC
r -t 1.061059385 -s 18 -d -1 -p DSR -e 48 -c 2 -a 0 -i 9 -k MAC
r -t 1.061059504 -s 19 -d -1 -p DSR -e 48 -c 2 -a 0 -i 9 -k MAC
+ -t 1.061157288 -s 5 -d -1 -p DSR -e 48 -c 2 -a 0 -i 9 -k RTR 
- -t 1.061157288 -s 5 -d -1 -p DSR -e 48 -c 2 -a 0 -i 9 -k RTR
h -t 1.061157288 -s 5 -d -1 -p DSR -e 48 -c 2 -a 0 -i 9 -k RTR
+ -t 1.061208698 -s 17 -d -1 -p DSR -e 150 -c 2 -a 0 -i 7 -k MAC 
- -t 1.061208698 -s 17 -d -1 -p DSR -e 150 -c 2 -a 0 -i 7 -k MAC
h -t 1.061208698 -s 17 -d -1 -p DSR -e 150 -c 2 -a 0 -i 7 -k MAC
+ -t 1.062186046 -s 13 -d -1 -p DSR -e 92 -c 2 -a 0 -i 7 -k RTR 
- -t 1.062186046 -s 13 -d -1 -p DSR -e 92 -c 2 -a 0 -i 7 -k RTR
h -t 1.062186046 -s 13 -d -1 -p DSR -e 92 -c 2 -a 0 -i 7 -k RTR
+ -t 1.062379094 -s 4 -d -1 -p DSR -e 68 -c 2 -a 0 -i 7 -k RTR 
- -t 1.062379094 -s 4 -d -1 -p DSR -e 68 -c 2 -a 0 -i 7 -k RTR
h -t 1.062379094 -s 4 -d -1 -p DSR -e 68 -c 2 -a 0 -i 7 -k RTR
r -t 1.062408959 -s 15 -d -1 -p DSR -e 92 -c 2 -a 0 -i 7 -k MAC
r -t 1.062409059 -s 16 -d -1 -p DSR -e 92 -c 2 -a 0 -i 7 -k MAC
r -t 1.062409367 -s 14 -d -1 -p DSR -e 92 -c 2 -a 0 -i 7 -k MAC
r -t 1.062409385 -s 18 -d -1 -p DSR -e 92 -c 2 -a 0 -i 7 -k MAC
r -t 1.062409504 -s 19 -d -1 -p DSR -e 92 -c 2 -a 0 -i 7 -k MAC
+ -t 1.062943905 -s 5 -d -1 -p DSR -e 150 -c 2 -a 0 -i 7 -k MAC 
- -t 1.062943905 -s 5 -d -1 -p DSR -e 150 -c 2 -a 0 -i 7 -k MAC
h -t 1.062943905 -s 5 -d -1 -p DSR -e 150 -c 2 -a 0 -i 7 -k MAC
+ -t 1.063175117 -s 19 -d -1 -p DSR -e 48 -c 2 -a 0 -i 9 -k RTR 
- -t 1.063175117 -s 19 -d -1 -p DSR -e 48 -c 2 -a 0 -i 9 -k RTR
h -t 1.063175117 -s 19 -d -1 -p DSR -e 48 -c 2 -a 0 -i 9 -k RTR
+ -t 1.063696268 -s 15 -d -1 -p DSR -e 92 -c 2 -a 0 -i 7 -k RTR 
- -t 1.063696268 -s 15 -d -1 -p DSR -e 92 -c 2 -a 0 -i 7 -k RTR
h -t 1.063696268 -s 15 -d -1 -p DSR -e 92 -c 2 -a 0 -i 7 -k RTR
+ -t 1.063730805 -s 15 -d -1 -p DSR -e 48 -c 2 -a 0 -i 9 -k RTR 
- -t 1.063730805 -s 15 -d -1 -p DSR -e 48 -c 2 -a 0 -i 9 -k RTR
h -t 1.063730805 -s 15 -d -1 -p DSR -e 48 -c 2 -a 0 -i 9 -k RTR
r -t 1.064144380 -s 19 -d -1 -p DSR -e 92 -c 2 -a 0 -i 7 -k MAC
r -t 1.064144477 -s 14 -d -1 -p DSR -e 92 -c 2 -a 0 -i 7 -k MAC
r -t 1.064144480 -s 8 -d -1 -p DSR -e 92 -c 2 -a 0 -i 7 -k MAC
r -t 1.064144499 -s 13 -d -1 -p DSR -e 92 -c 2 -a 0 -i 7 -k MAC
r -t 1.064144574 -s 12 -d -1 -p DSR -e 92 -c 2 -a 0 -i 7 -k MAC
r -t 1.064144605 -s 4 -d -1 -p DSR -e 92 -c 2 -a 0 -i 7 -k MAC
r -t 1.064144635 -s 6 -d -1 -p DSR -e 92 -c 2 -a 0 -i 7 -k MAC
r -t 1.064144715 -s 18 -d -1 -p DSR -e 92 -c 2 -a 0 -i 7 -k MAC
+ -t 1.064233905 -s 5 -d -1 -p DSR -e 106 -c 2 -a 0 -i 9 -k MAC 
- -t 1.064233905 -s 5 -d -1 -p DSR -e 106 -c 2 -a 0 -i 9 -k MAC
h -t 1.064233905 -s 5 -d -1 -p DSR -e 106 -c 2 -a 0 -i 9 -k MAC
+ -t 1.064418484 -s 6 -d -1 -p DSR -e 92 -c 2 -a 0 -i 7 -k RTR 
- -t 1.064418484 -s 6 -d -1 -p DSR -e 92 -c 2 -a 0 -i 7 -k RTR
h -t 1.064418484 -s 6 -d -1 -p DSR -e 92 -c 2 -a 0 -i 7 -k RTR
+ -t 1.064943527 -s 18 -d -1 -p DSR -e 48 -c 2 -a 0 -i 9 -k RTR 
- -t 1.064943527 -s 18 -d -1 -p DSR -e 48 -c 2 -a 0 -i 9 -k RTR
h -t 1.064943527 -s 18 -d -1 -p DSR -e 48 -c 2 -a 0 -i 9 -k RTR
r -t 1.065082380 -s 19 -d -1 -p DSR -e 48 -c 2 -a 0 -i 9 -k MAC
r -t 1.065082477 -s 14 -d -1 -p DSR -e 48 -c 2 -a 0 -i 9 -k MAC
r -t 1.065082480 -s 8 -d -1 -p DSR -e 48 -c 2 -a 0 -i 9 -k MAC
r -t 1.065082499 -s 13 -d -1 -p DSR -e 48 -c 2 -a 0 -i 9 -k MAC
r -t 1.065082574 -s 12 -d -1 -p DSR -e 48 -c 2 -a 0 -i 9 -k MAC
r -t 1.065082605 -s 4 -d -1 -p DSR -e 48 -c 2 -a 0 -i 9 -k MAC
r -t 1.065082635 -s 6 -d -1 -p DSR -e 48 -c 2 -a 0 -i 9 -k MAC
r -t 1.065082715 -s 18 -d -1 -p DSR -e 48 -c 2 -a 0 -i 9 -k MAC
+ -t 1.065221814 -s 8 -d -1 -p DSR -e 68 -c 2 -a 0 -i 9 -k RTR 
- -t 1.065221814 -s 8 -d -1 -p DSR -e 68 -c 2 -a 0 -i 9 -k RTR
h -t 1.065221814 -s 8 -d -1 -p DSR -e 68 -c 2 -a 0 -i 9 -k RTR
+ -t 1.065252499 -s 13 -d -1 -p DSR -e 150 -c 2 -a 0 -i 7 -k MAC 
- -t 1.065252499 -s 13 -d -1 -p DSR -e 150 -c 2 -a 0 -i 7 -k MAC
h -t 1.065252499 -s 13 -d -1 -p DSR -e 150 -c 2 -a 0 -i 7 -k MAC
+ -t 1.065448391 -s 13 -d -1 -p DSR -e 48 -c 2 -a 0 -i 9 -k RTR 
- -t 1.065448391 -s 13 -d -1 -p DSR -e 48 -c 2 -a 0 -i 9 -k RTR
h -t 1.065448391 -s 13 -d -1 -p DSR -e 48 -c 2 -a 0 -i 9 -k RTR
+ -t 1.065897424 -s 2 -d -1 -p DSR -e 106 -c 2 -a 0 -i 7 -k MAC 
- -t 1.065897424 -s 2 -d -1 -p DSR -e 106 -c 2 -a 0 -i 7 -k MAC
h -t 1.065897424 -s 2 -d -1 -p DSR -e 106 -c 2 -a 0 -i 7 -k MAC
d -t 1.065898585 -s 19 -d -1 -p DSR -e 150 -c 2 -a 0 -i 7 -k MAC
r -t 1.066453036 -s 18 -d -1 -p DSR -e 92 -c 2 -a 0 -i 7 -k MAC
r -t 1.066453081 -s 14 -d -1 -p DSR -e 92 -c 2 -a 0 -i 7 -k MAC
r -t 1.066453092 -s 5 -d -1 -p DSR -e 92 -c 2 -a 0 -i 7 -k MAC
r -t 1.066453097 -s 12 -d -1 -p DSR -e 92 -c 2 -a 0 -i 7 -k MAC
d -t 1.066745870 -s 1 -d -1 -p DSR -e 106 -c 2 -a 0 -i 7 -k MAC
d -t 1.066745906 -s 3 -d -1 -p DSR -e 106 -c 2 -a 0 -i 7 -k MAC
r -t 1.066746216 -s 0 -d -1 -p DSR -e 48 -c 2 -a 0 -i 7 -k MAC
d -t 1.066746244 -s 4 -d -1 -p DSR -e 106 -c 2 -a 0 -i 7 -k MAC
+ -t 1.066760279 -s 14 -d -1 -p DSR -e 92 -c 2 -a 0 -i 7 -k RTR 
- -t 1.066760279 -s 14 -d -1 -p DSR -e 92 -c 2 -a 0 -i 7 -k RTR
h -t 1.066760279 -s 14 -d -1 -p DSR -e 92 -c 2 -a 0 -i 7 -k RTR
+ -t 1.066822499 -s 13 -d -1 -p DSR -e 106 -c 2 -a 0 -i 9 -k MAC 
- -t 1.066822499 -s 13 -d -1 -p DSR -e 106 -c 2 -a 0 -i 9 -k MAC
h -t 1.066822499 -s 13 -d -1 -p DSR -e 106 -c 2 -a 0 -i 9 -k MAC
+ -t 1.066911116 -s 8 -d -1 -p DSR -e 120 -c 2 -a 0 -i 7 -k RTR 
- -t 1.066911116 -s 8 -d -1 -p DSR -e 120 -c 2 -a 0 -i 7 -k RTR
h -t 1.066911116 -s 8 -d -1 -p DSR -e 120 -c 2 -a 0 -i 7 -k RTR
+ -t 1.067382644 -s 18 -d -1 -p DSR -e 92 -c 2 -a 0 -i 7 -k RTR 
- -t 1.067382644 -s 18 -d -1 -p DSR -e 92 -c 2 -a 0 -i 7 -k RTR
h -t 1.067382644 -s 18 -d -1 -p DSR -e 92 -c 2 -a 0 -i 7 -k RTR
r -t 1.067671036 -s 18 -d -1 -p DSR -e 48 -c 2 -a 0 -i 9 -k MAC
r -t 1.067671081 -s 14 -d -1 -p DSR -e 48 -c 2 -a 0 -i 9 -k MAC
r -t 1.067671092 -s 5 -d -1 -p DSR -e 48 -c 2 -a 0 -i 9 -k MAC
r -t 1.067671097 -s 12 -d -1 -p DSR -e 48 -c 2 -a 0 -i 9 -k MAC
r -t 1.067671323 -s 19 -d -1 -p DSR -e 48 -c 2 -a 0 -i 9 -k MAC
+ -t 1.067721081 -s 14 -d -1 -p DSR -e 150 -c 2 -a 0 -i 7 -k MAC 
- -t 1.067721081 -s 14 -d -1 -p DSR -e 150 -c 2 -a 0 -i 7 -k MAC
h -t 1.067721081 -s 14 -d -1 -p DSR -e 150 -c 2 -a 0 -i 7 -k MAC
+ -t 1.068406862 -s 1 -d -1 -p DSR -e 68 -c 2 -a 0 -i 9 -k RTR 
- -t 1.068406862 -s 1 -d -1 -p DSR -e 68 -c 2 -a 0 -i 9 -k RTR
h -t 1.068406862 -s 1 -d -1 -p DSR -e 68 -c 2 -a 0 -i 9 -k RTR
r -t 1.068921402 -s 18 -d -1 -p DSR -e 92 -c 2 -a 0 -i 7 -k MAC
r -t 1.068921454 -s 19 -d -1 -p DSR -e 92 -c 2 -a 0 -i 7 -k MAC
r -t 1.068921489 -s 15 -d -1 -p DSR -e 92 -c 2 -a 0 -i 7 -k MAC
r -t 1.068921552 -s 16 -d -1 -p DSR -e 92 -c 2 -a 0 -i 7 -k MAC
r -t 1.068921653 -s 5 -d -1 -p DSR -e 92 -c 2 -a 0 -i 7 -k MAC
r -t 1.068921663 -s 13 -d -1 -p DSR -e 92 -c 2 -a 0 -i 7 -k MAC
r -t 1.068921750 -s 17 -d -1 -p DSR -e 92 -c 2 -a 0 -i 7 -k MAC
r -t 1.068921887 -s 4 -d -1 -p DSR -e 92 -c 2 -a 0 -i 7 -k MAC
+ -t 1.069031887 -s 4 -d -1 -p DSR -e 106 -c 2 -a 0 -i 9 -k MAC 
- -t 1.069031887 -s 4 -d -1 -p DSR -e 106 -c 2 -a 0 -i 9 -k MAC
h -t 1.069031887 -s 4 -d -1 -p DSR -e 106 -c 2 -a 0 -i 9 -k MAC
r -t 1.069880201 -s 6 -d -1 -p DSR -e 48 -c 2 -a 0 -i 9 -k MAC
r -t 1.069880321 -s 19 -d -1 -p DSR -e 48 -c 2 -a 0 -i 9 -k MAC
r -t 1.069880392 -s 3 -d -1 -p DSR -e 48 -c 2 -a 0 -i 9 -k MAC
r -t 1.069880517 -s 1 -d -1 -p DSR -e 48 -c 2 -a 0 -i 9 -k MAC
r -t 1.069880588 -s 5 -d -1 -p DSR -e 48 -c 2 -a 0 -i 9 -k MAC
r -t 1.069880618 -s 16 -d -1 -p DSR -e 48 -c 2 -a 0 -i 9 -k MAC
r -t 1.069880694 -s 14 -d -1 -p DSR -e 48 -c 2 -a 0 -i 9 -k MAC
r -t 1.069880708 -s 2 -d -1 -p DSR -e 48 -c 2 -a 0 -i 9 -k MAC
r -t 1.069880711 -s 7 -d -1 -p DSR -e 48 -c 2 -a 0 -i 9 -k MAC
+ -t 1.070070321 -s 19 -d -1 -p DSR -e 106 -c 2 -a 0 -i 9 -k MAC 
- -t 1.070070321 -s 19 -d -1 -p DSR -e 106 -c 2 -a 0 -i 9 -k MAC
h -t 1.070070321 -s 19 -d -1 -p DSR -e 106 -c 2 -a 0 -i 9 -k MAC
r -t 1.070918695 -s 14 -d -1 -p DSR -e 48 -c 2 -a 0 -i 9 -k MAC
r -t 1.070918755 -s 4 -d -1 -p DSR -e 48 -c 2 -a 0 -i 9 -k MAC
r -t 1.070918789 -s 16 -d -1 -p DSR -e 48 -c 2 -a 0 -i 9 -k MAC
r -t 1.070918796 -s 5 -d -1 -p DSR -e 48 -c 2 -a 0 -i 9 -k MAC
r -t 1.070918911 -s 15 -d -1 -p DSR -e 48 -c 2 -a 0 -i 9 -k MAC
r -t 1.070918986 -s 6 -d -1 -p DSR -e 48 -c 2 -a 0 -i 9 -k MAC
r -t 1.070919016 -s 18 -d -1 -p DSR -e 48 -c 2 -a 0 -i 9 -k MAC
r -t 1.070919128 -s 17 -d -1 -p DSR -e 48 -c 2 -a 0 -i 9 -k MAC
r -t 1.070919145 -s 13 -d -1 -p DSR -e 48 -c 2 -a 0 -i 9 -k MAC
r -t 1.070919148 -s 1 -d -1 -p DSR -e 48 -c 2 -a 0 -i 9 -k MAC
+ -t 1.071108911 -s 15 -d -1 -p DSR -e 150 -c 2 -a 0 -i 7 -k MAC 
- -t 1.071108911 -s 15 -d -1 -p DSR -e 150 -c 2 -a 0 -i 7 -k MAC
h -t 1.071108911 -s 15 -d -1 -p DSR -e 150 -c 2 -a 0 -i 7 -k MAC
+ -t 1.071730793 -s 12 -d -1 -p DSR -e 120 -c 2 -a 0 -i 7 -k RTR 
- -t 1.071730793 -s 12 -d -1 -p DSR -e 120 -c 2 -a 0 -i 7 -k RTR
h -t 1.071730793 -s 12 -d -1 -p DSR -e 120 -c 2 -a 0 -i 7 -k RTR
r -t 1.072309158 -s 16 -d -1 -p DSR -e 92 -c 2 -a 0 -i 7 -k MAC
r -t 1.072309171 -s 17 -d -1 -p DSR -e 92 -c 2 -a 0 -i 7 -k MAC
r -t 1.072309319 -s 14 -d -1 -p DSR -e 92 -c 2 -a 0 -i 7 -k MAC
r -t 1.072309380 -s 18 -d -1 -p DSR -e 92 -c 2 -a 0 -i 7 -k MAC
r -t 1.072309500 -s 19 -d -1 -p DSR -e 92 -c 2 -a 0 -i 7 -k MAC
+ -t 1.072479380 -s 18 -d -1 -p DSR -e 106 -c 2 -a 0 -i 9 -k MAC 
- -t 1.072479380 -s 18 -d -1 -p DSR -e 106 -c 2 -a 0 -i 9 -k MAC
h -t 1.072479380 -s 18 -d -1 -p DSR -e 106 -c 2 -a 0 -i 9 -k MAC
+ -t 1.073001876 -s 2 -d -1 -p DSR -e 68 -c 2 -a 0 -i 9 -k RTR 
- -t 1.073001876 -s 2 -d -1 -p DSR -e 68 -c 2 -a 0 -i 9 -k RTR
h -t 1.073001876 -s 2 -d -1 -p DSR -e 68 -c 2 -a 0 -i 9 -k RTR
+ -t 1.073089235 -s 12 -d -1 -p DSR -e 68 -c 2 -a 0 -i 9 -k RTR 
- -t 1.073089235 -s 12 -d -1 -p DSR -e 68 -c 2 -a 0 -i 9 -k RTR
h -t 1.073089235 -s 12 -d -1 -p DSR -e 68 -c 2 -a 0 -i 9 -k RTR
r -t 1.073327701 -s 14 -d -1 -p DSR -e 48 -c 2 -a 0 -i 9 -k MAC
r -t 1.073327849 -s 15 -d -1 -p DSR -e 48 -c 2 -a 0 -i 9 -k MAC
r -t 1.073327918 -s 13 -d -1 -p DSR -e 48 -c 2 -a 0 -i 9 -k MAC
r -t 1.073328037 -s 16 -d -1 -p DSR -e 48 -c 2 -a 0 -i 9 -k MAC
r -t 1.073328068 -s 17 -d -1 -p DSR -e 48 -c 2 -a 0 -i 9 -k MAC
r -t 1.073328075 -s 19 -d -1 -p DSR -e 48 -c 2 -a 0 -i 9 -k MAC
r -t 1.073328190 -s 5 -d -1 -p DSR -e 48 -c 2 -a 0 -i 9 -k MAC
+ -t 1.073457849 -s 15 -d -1 -p DSR -e 106 -c 2 -a 0 -i 9 -k MAC 
- -t 1.073457849 -s 15 -d -1 -p DSR -e 106 -c 2 -a 0 -i 9 -k MAC
h -t 1.073457849 -s 15 -d -1 -p DSR -e 106 -c 2 -a 0 -i 9 -k MAC
+ -t 1.074172377 -s 3 -d -1 -p DSR -e 68 -c 2 -a 0 -i 9 -k RTR 
- -t 1.074172377 -s 3 -d -1 -p DSR -e 68 -c 2 -a 0 -i 9 -k RTR
h -t 1.074172377 -s 3 -d -1 -p DSR -e 68 -c 2 -a 0 -i 9 -k RTR
r -t 1.074306096 -s 16 -d -1 -p DSR -e 48 -c 2 -a 0 -i 9 -k MAC
r -t 1.074306110 -s 17 -d -1 -p DSR -e 48 -c 2 -a 0 -i 9 -k MAC
r -t 1.074306258 -s 14 -d -1 -p DSR -e 48 -c 2 -a 0 -i 9 -k MAC
r -t 1.074306319 -s 18 -d -1 -p DSR -e 48 -c 2 -a 0 -i 9 -k MAC
r -t 1.074306438 -s 19 -d -1 -p DSR -e 48 -c 2 -a 0 -i 9 -k MAC
+ -t 1.074676319 -s 18 -d -1 -p DSR -e 150 -c 2 -a 0 -i 7 -k MAC 
- -t 1.074676319 -s 18 -d -1 -p DSR -e 150 -c 2 -a 0 -i 7 -k MAC
h -t 1.074676319 -s 18 -d -1 -p DSR -e 150 -c 2 -a 0 -i 7 -k MAC
+ -t 1.074789574 -s 6 -d -1 -p DSR -e 68 -c 2 -a 0 -i 9 -k RTR 
- -t 1.074789574 -s 6 -d -1 -p DSR -e 68 -c 2 -a 0 -i 9 -k RTR
h -t 1.074789574 -s 6 -d -1 -p DSR -e 68 -c 2 -a 0 -i 9 -k RTR
r -t 1.075876640 -s 14 -d -1 -p DSR -e 92 -c 2 -a 0 -i 7 -k MAC
r -t 1.075876788 -s 15 -d -1 -p DSR -e 92 -c 2 -a 0 -i 7 -k MAC
r -t 1.075876856 -s 13 -d -1 -p DSR -e 92 -c 2 -a 0 -i 7 -k MAC
r -t 1.075876976 -s 16 -d -1 -p DSR -e 92 -c 2 -a 0 -i 7 -k MAC
r -t 1.075877006 -s 17 -d -1 -p DSR -e 92 -c 2 -a 0 -i 7 -k MAC
r -t 1.075877013 -s 19 -d -1 -p DSR -e 92 -c 2 -a 0 -i 7 -k MAC
r -t 1.075877129 -s 5 -d -1 -p DSR -e 92 -c 2 -a 0 -i 7 -k MAC
+ -t 1.076074013 -s 7 -d -1 -p DSR -e 68 -c 2 -a 0 -i 9 -k RTR 
- -t 1.076074013 -s 7 -d -1 -p DSR -e 68 -c 2 -a 0 -i 9 -k RTR
h -t 1.076074013 -s 7 -d -1 -p DSR -e 68 -c 2 -a 0 -i 9 -k RTR
+ -t 1.076391445 -s 4 -d -1 -p DSR -e 126 -c 2 -a 0 -i 7 -k MAC 
- -t 1.076391445 -s 4 -d -1 -p DSR -e 126 -c 2 -a 0 -i 7 -k MAC
h -t 1.076391445 -s 4 -d -1 -p DSR -e 126 -c 2 -a 0 -i 7 -k MAC
r -t 1.077399759 -s 6 -d -1 -p DSR -e 68 -c 2 -a 0 -i 7 -k MAC
r -t 1.077399879 -s 19 -d -1 -p DSR -e 68 -c 2 -a 0 -i 7 -k MAC
r -t 1.077399950 -s 3 -d -1 -p DSR -e 68 -c 2 -a 0 -i 7 -k MAC
r -t 1.077400075 -s 1 -d -1 -p DSR -e 68 -c 2 -a 0 -i 7 -k MAC
r -t 1.077400146 -s 5 -d -1 -p DSR -e 68 -c 2 -a 0 -i 7 -k MAC
r -t 1.077400176 -s 16 -d -1 -p DSR -e 68 -c 2 -a 0 -i 7 -k MAC
r -t 1.077400252 -s 14 -d -1 -p DSR -e 68 -c 2 -a 0 -i 7 -k MAC
r -t 1.077400266 -s 2 -d -1 -p DSR -e 68 -c 2 -a 0 -i 7 -k MAC
r -t 1.077400269 -s 7 -d -1 -p DSR -e 68 -c 2 -a 0 -i 7 -k MAC
+ -t 1.077529759 -s 6 -d -1 -p DSR -e 150 -c 2 -a 0 -i 7 -k MAC 
- -t 1.077529759 -s 6 -d -1 -p DSR -e 150 -c 2 -a 0 -i 7 -k MAC
h -t 1.077529759 -s 6 -d -1 -p DSR -e 150 -c 2 -a 0 -i 7 -k MAC
r -t 1.078730073 -s 4 -d -1 -p DSR -e 92 -c 2 -a 0 -i 7 -k MAC
r -t 1.078730250 -s 3 -d -1 -p DSR -e 92 -c 2 -a 0 -i 7 -k MAC
r -t 1.078730278 -s 7 -d -1 -p DSR -e 92 -c 2 -a 0 -i 7 -k MAC
r -t 1.078730424 -s 19 -d -1 -p DSR -e 92 -c 2 -a 0 -i 7 -k MAC
r -t 1.078730448 -s 8 -d -1 -p DSR -e 92 -c 2 -a 0 -i 7 -k MAC
r -t 1.078730490 -s 5 -d -1 -p DSR -e 92 -c 2 -a 0 -i 7 -k MAC
+ -t 1.078800250 -s 3 -d -1 -p DSR -e 126 -c 2 -a 0 -i 7 -k MAC 
- -t 1.078800250 -s 3 -d -1 -p DSR -e 126 -c 2 -a 0 -i 7 -k MAC
h -t 1.078800250 -s 3 -d -1 -p DSR -e 126 -c 2 -a 0 -i 7 -k MAC
r -t 1.079808733 -s 2 -d -1 -p DSR -e 68 -c 2 -a 0 -i 7 -k MAC
r -t 1.079808741 -s 6 -d -1 -p DSR -e 68 -c 2 -a 0 -i 7 -k MAC
r -t 1.079808754 -s 4 -d -1 -p DSR -e 68 -c 2 -a 0 -i 7 -k MAC
r -t 1.079808873 -s 1 -d -1 -p DSR -e 68 -c 2 -a 0 -i 7 -k MAC
r -t 1.079808958 -s 7 -d -1 -p DSR -e 68 -c 2 -a 0 -i 7 -k MAC
+ -t 1.079898873 -s 1 -d -1 -p DSR -e 126 -c 2 -a 0 -i 9 -k MAC 
- -t 1.079898873 -s 1 -d -1 -p DSR -e 126 -c 2 -a 0 -i 9 -k MAC
h -t 1.079898873 -s 1 -d -1 -p DSR -e 126 -c 2 -a 0 -i 9 -k MAC
+ -t 1.080364046 -s 12 -d -1 -p DSR -e 178 -c 2 -a 0 -i 7 -k MAC 
- -t 1.080364046 -s 12 -d -1 -p DSR -e 178 -c 2 -a 0 -i 7 -k MAC
h -t 1.080364046 -s 12 -d -1 -p DSR -e 178 -c 2 -a 0 -i 7 -k MAC
d -t 1.080365167 -s 19 -d -1 -p DSR -e 126 -c 2 -a 0 -i 9 -k MAC
r -t 1.080907319 -s 2 -d -1 -p DSR -e 68 -c 2 -a 0 -i 9 -k MAC
r -t 1.080907407 -s 0 -d -1 -p DSR -e 68 -c 2 -a 0 -i 9 -k MAC
r -t 1.080907496 -s 3 -d -1 -p DSR -e 68 -c 2 -a 0 -i 9 -k MAC
r -t 1.080907502 -s 4 -d -1 -p DSR -e 68 -c 2 -a 0 -i 9 -k MAC
r -t 1.080907590 -s 16 -d -1 -p DSR -e 68 -c 2 -a 0 -i 9 -k MAC
+ -t 1.081077319 -s 2 -d -1 -p DSR -e 126 -c 2 -a 0 -i 9 -k MAC 
- -t 1.081077319 -s 2 -d -1 -p DSR -e 126 -c 2 -a 0 -i 9 -k MAC
h -t 1.081077319 -s 2 -d -1 -p DSR -e 126 -c 2 -a 0 -i 9 -k MAC
+ -t 1.081592641 -s 7 -d -1 -p DSR -e 92 -c 2 -a 0 -i 7 -k RTR 
- -t 1.081592641 -s 7 -d -1 -p DSR -e 92 -c 2 -a 0 -i 7 -k RTR
h -t 1.081592641 -s 7 -d -1 -p DSR -e 92 -c 2 -a 0 -i 7 -k RTR
r -t 1.081788603 -s 10 -d -1 -p DSR -e 120 -c 2 -a 0 -i 7 -k MAC
d -t 1.081788645 -s 13 -d -1 -p DSR -e 178 -c 2 -a 0 -i 7 -k MAC
d -t 1.081788715 -s 5 -d -1 -p DSR -e 178 -c 2 -a 0 -i 7 -k MAC
d -t 1.081788836 -s 8 -d -1 -p DSR -e 178 -c 2 -a 0 -i 7 -k MAC
+ -t 1.081898046 -s 12 -d -1 -p DSR -e 126 -c 2 -a 0 -i 9 -k MAC 
- -t 1.081898046 -s 12 -d -1 -p DSR -e 126 -c 2 -a 0 -i 9 -k MAC
h -t 1.081898046 -s 12 -d -1 -p DSR -e 126 -c 2 -a 0 -i 9 -k MAC
d -t 1.081899405 -s 4 -d -1 -p DSR -e 126 -c 2 -a 0 -i 9 -k MAC
r -t 1.082085766 -s 1 -d -1 -p DSR -e 68 -c 2 -a 0 -i 9 -k MAC
r -t 1.082085802 -s 3 -d -1 -p DSR -e 68 -c 2 -a 0 -i 9 -k MAC
r -t 1.082086112 -s 0 -d -1 -p DSR -e 68 -c 2 -a 0 -i 9 -k MAC
r -t 1.082906603 -s 10 -d -1 -p DSR -e 68 -c 2 -a 0 -i 9 -k MAC
r -t 1.082906645 -s 13 -d -1 -p DSR -e 68 -c 2 -a 0 -i 9 -k MAC
r -t 1.082906715 -s 5 -d -1 -p DSR -e 68 -c 2 -a 0 -i 9 -k MAC
r -t 1.082906836 -s 8 -d -1 -p DSR -e 68 -c 2 -a 0 -i 9 -k MAC
+ -t 1.083176836 -s 8 -d -1 -p DSR -e 126 -c 2 -a 0 -i 9 -k MAC 
- -t 1.083176836 -s 8 -d -1 -p DSR -e 126 -c 2 -a 0 -i 9 -k MAC
h -t 1.083176836 -s 8 -d -1 -p DSR -e 126 -c 2 -a 0 -i 9 -k MAC
+ -t 1.083252559 -s 10 -d -1 -p DSR -e 152 -c 2 -a 0 -i 7 -k RTR 
- -t 1.083252559 -s 10 -d -1 -p DSR -e 152 -c 2 -a 0 -i 7 -k RTR
h -t 1.083252559 -s 10 -d -1 -p DSR -e 152 -c 2 -a 0 -i 7 -k RTR
r -t 1.084185314 -s 11 -d -1 -p DSR -e 68 -c 2 -a 0 -i 9 -k MAC
r -t 1.084185392 -s 10 -d -1 -p DSR -e 68 -c 2 -a 0 -i 9 -k MAC
r -t 1.084185412 -s 5 -d -1 -p DSR -e 68 -c 2 -a 0 -i 9 -k MAC
r -t 1.084185456 -s 9 -d -1 -p DSR -e 68 -c 2 -a 0 -i 9 -k MAC
r -t 1.084185525 -s 6 -d -1 -p DSR -e 68 -c 2 -a 0 -i 9 -k MAC
r -t 1.084185601 -s 7 -d -1 -p DSR -e 68 -c 2 -a 0 -i 9 -k MAC
r -t 1.084185626 -s 12 -d -1 -p DSR -e 68 -c 2 -a 0 -i 9 -k MAC
+ -t 1.084435601 -s 7 -d -1 -p DSR -e 126 -c 2 -a 0 -i 9 -k MAC 
- -t 1.084435601 -s 7 -d -1 -p DSR -e 126 -c 2 -a 0 -i 9 -k MAC
h -t 1.084435601 -s 7 -d -1 -p DSR -e 126 -c 2 -a 0 -i 9 -k MAC
r -t 1.085444119 -s 6 -d -1 -p DSR -e 68 -c 2 -a 0 -i 9 -k MAC
r -t 1.085444187 -s 9 -d -1 -p DSR -e 68 -c 2 -a 0 -i 9 -k MAC
r -t 1.085444309 -s 3 -d -1 -p DSR -e 68 -c 2 -a 0 -i 9 -k MAC
r -t 1.085444366 -s 8 -d -1 -p DSR -e 68 -c 2 -a 0 -i 9 -k MAC
r -t 1.085444425 -s 4 -d -1 -p DSR -e 68 -c 2 -a 0 -i 9 -k MAC
+ -t 1.085514366 -s 8 -d -1 -p DSR -e 178 -c 2 -a 0 -i 7 -k MAC 
- -t 1.085514366 -s 8 -d -1 -p DSR -e 178 -c 2 -a 0 -i 7 -k MAC
h -t 1.085514366 -s 8 -d -1 -p DSR -e 178 -c 2 -a 0 -i 7 -k MAC
r -t 1.086938844 -s 11 -d -1 -p DSR -e 120 -c 2 -a 0 -i 7 -k MAC
r -t 1.086938922 -s 10 -d -1 -p DSR -e 120 -c 2 -a 0 -i 7 -k MAC
r -t 1.086938941 -s 5 -d -1 -p DSR -e 120 -c 2 -a 0 -i 7 -k MAC
r -t 1.086938986 -s 9 -d -1 -p DSR -e 120 -c 2 -a 0 -i 7 -k MAC
r -t 1.086939054 -s 6 -d -1 -p DSR -e 120 -c 2 -a 0 -i 7 -k MAC
r -t 1.086939131 -s 7 -d -1 -p DSR -e 120 -c 2 -a 0 -i 7 -k MAC
r -t 1.086939156 -s 12 -d -1 -p DSR -e 120 -c 2 -a 0 -i 7 -k MAC
+ -t 1.087008922 -s 10 -d -1 -p DSR -e 210 -c 2 -a 0 -i 7 -k MAC 
- -t 1.087008922 -s 10 -d -1 -p DSR -e 210 -c 2 -a 0 -i 7 -k MAC
h -t 1.087008922 -s 10 -d -1 -p DSR -e 210 -c 2 -a 0 -i 7 -k MAC
+ -t 1.087291171 -s 0 -d -1 -p DSR -e 92 -c 2 -a 0 -i 9 -k RTR 
- -t 1.087291171 -s 0 -d -1 -p DSR -e 92 -c 2 -a 0 -i 9 -k RTR
h -t 1.087291171 -s 0 -d -1 -p DSR -e 92 -c 2 -a 0 -i 9 -k RTR
+ -t 1.087806171 -s 0 -d -1 -p DSR -e 150 -c 2 -a 0 -i 9 -k MAC 
- -t 1.087806171 -s 0 -d -1 -p DSR -e 150 -c 2 -a 0 -i 9 -k MAC
h -t 1.087806171 -s 0 -d -1 -p DSR -e 150 -c 2 -a 0 -i 9 -k MAC
+ -t 1.087923064 -s 11 -d -1 -p DSR -e 92 -c 2 -a 0 -i 9 -k RTR 
- -t 1.087923064 -s 11 -d -1 -p DSR -e 92 -c 2 -a 0 -i 9 -k RTR
h -t 1.087923064 -s 11 -d -1 -p DSR -e 92 -c 2 -a 0 -i 9 -k RTR
r -t 1.088689255 -s 11 -d -1 -p DSR -e 152 -c 2 -a 0 -i 7 -k MAC
r -t 1.088689477 -s 8 -d -1 -p DSR -e 152 -c 2 -a 0 -i 7 -k MAC
r -t 1.088689479 -s 12 -d -1 -p DSR -e 152 -c 2 -a 0 -i 7 -k MAC
+ -t 1.088747784 -s 9 -d -1 -p DSR -e 92 -c 2 -a 0 -i 9 -k RTR 
- -t 1.088747784 -s 9 -d -1 -p DSR -e 92 -c 2 -a 0 -i 9 -k RTR
h -t 1.088747784 -s 9 -d -1 -p DSR -e 92 -c 2 -a 0 -i 9 -k RTR
+ -t 1.088999255 -s 11 -d -1 -p DSR -e 150 -c 2 -a 0 -i 9 -k MAC 
- -t 1.088999255 -s 11 -d -1 -p DSR -e 150 -c 2 -a 0 -i 9 -k MAC
h -t 1.088999255 -s 11 -d -1 -p DSR -e 150 -c 2 -a 0 -i 9 -k MAC
r -t 1.089006706 -s 1 -d -1 -p DSR -e 92 -c 2 -a 0 -i 9 -k MAC
r -t 1.089006964 -s 2 -d -1 -p DSR -e 92 -c 2 -a 0 -i 9 -k MAC
r -t 1.090199588 -s 10 -d -1 -p DSR -e 92 -c 2 -a 0 -i 9 -k MAC
r -t 1.090199733 -s 8 -d -1 -p DSR -e 92 -c 2 -a 0 -i 9 -k MAC
r -t 1.090199837 -s 9 -d -1 -p DSR -e 92 -c 2 -a 0 -i 9 -k MAC
+ -t 1.090674293 -s 7 -d -1 -p DSR -e 150 -c 2 -a 0 -i 7 -k MAC 
- -t 1.090674293 -s 7 -d -1 -p DSR -e 150 -c 2 -a 0 -i 7 -k MAC